TITLE="fun3d_case_title"
VARIABLES="Iteration" "R_1" "R_2" "R_3" "R_4" "R_5" "C_L" "C_D" "C_M_x" "C_M_y" "C_M_z" "Wall Time" "C_x" "C_y" "C_z" "C_Lp" "C_Dp" "C_Lv" "C_Dv" "C_M_xp" "C_M_yp" "C_M_zp" "C_M_xv" "C_M_yv" "C_M_zv" "C_xp" "C_yp" "C_zp" "C_xv" "C_yv" "C_zv"
ZONE  I=1800 F=POINT
1  0.2262634356E-03  0.6024271375E-04  0.1882929492E-16  0.1859515590E-16  0.5736784102E-03  0.1043122810E-04  0.7310276900E-01  0.7778820449E-08 -0.1062262172E-03  0.3196806680E-05  0.6985000000E+00  0.7310276900E-01  0.1476477593E-04  0.1043122810E-04  0.1043122810E-04  0.7310276900E-01  0.0000000000E+00  0.0000000000E+00  0.7778820449E-08 -0.1062262172E-03  0.3196806680E-05  0.0000000000E+00  0.0000000000E+00  0.0000000000E+00  0.7310276900E-01  0.1476477593E-04  0.1043122810E-04  0.0000000000E+00  0.0000000000E+00  0.0000000000E+00
2  0.2240197249E-03  0.6042057711E-04  0.1142544375E-05  0.1110080570E-05  0.5658423066E-03  0.2119067596E-04  0.1492062419E+00  0.1612582990E-07 -0.2158301496E-03  0.6273183537E-05  0.7455000000E+00  0.1492062419E+00  0.2989687765E-04  0.2119067596E-04  0.2119067596E-04  0.1492062419E+00  0.0000000000E+00  0.0000000000E+00  0.1612582990E-07 -0.2158301496E-03  0.6273183537E-05  0.0000000000E+00  0.0000000000E+00  0.0000000000E+00  0.1492062419E+00  0.2989687765E-04  0.2119067596E-04  0.0000000000E+00  0.0000000000E+00  0.0000000000E+00
3  0.2216693341E-03  0.6091646228E-04  0.2325470424E-05  0.2259284037E-05  0.5577829076E-03  0.3223790669E-04  0.2281525835E+00  0.2504998765E-07 -0.3284237498E-03  0.9189847659E-05  0.7975000000E+00  0.2281525835E+00  0.4532962599E-04  0.3223790669E-04  0.3223790669E-04  0.2281525835E+00  0.0000000000E+00  0.0000000000E+00  0.2504998765E-07 -0.3284237498E-03  0.9189847659E-05  0.0000000000E+00  0.0000000000E+00  0.0000000000E+00  0.2281525835E+00  0.4532962599E-04  0.3223790669E-04  0.0000000000E+00  0.0000000000E+00  0.0000000000E+00
4  0.2192159818E-03  0.6173740115E-04  0.3545854175E-05  0.3444768709E-05  0.5495279575E-03  0.4353023025E-04  0.3097773064E+00  0.3455780579E-07 -0.4436021289E-03  0.1190739245E-04  0.8395000000E+00  0.3097773064E+00  0.6099387953E-04  0.4353023025E-04  0.4353023025E-04  0.3097773064E+00  0.0000000000E+00  0.0000000000E+00  0.3455780579E-07 -0.4436021289E-03  0.1190739245E-04  0.0000000000E+00  0.0000000000E+00  0.0000000000E+00  0.3097773064E+00  0.6099387953E-04  0.4353023025E-04  0.0000000000E+00  0.0000000000E+00  0.0000000000E+00
5  0.2166638291E-03  0.6288065375E-04  0.4800736418E-05  0.4663661181E-05  0.5411055314E-03  0.5502270065E-04  0.3939095332E+00  0.4465323226E-07 -0.5609450734E-03  0.1438576629E-04  0.8895000000E+00  0.3939095332E+00  0.7681720324E-04  0.5502270065E-04  0.5502270065E-04  0.3939095332E+00  0.0000000000E+00  0.0000000000E+00  0.4465323226E-07 -0.5609450734E-03  0.1438576629E-04  0.0000000000E+00  0.0000000000E+00  0.0000000000E+00  0.3939095332E+00  0.7681720324E-04  0.5502270065E-04  0.0000000000E+00  0.0000000000E+00  0.0000000000E+00
6  0.2140175084E-03  0.6433449550E-04  0.6087126764E-05  0.5913060381E-05  0.5325439535E-03  0.6666757065E-04  0.4803722837E+00  0.5533718709E-07 -0.6800172981E-03  0.1658438067E-04  0.9395000000E+00  0.4803722837E+00  0.9272553107E-04  0.6666757065E-04  0.6666757065E-04  0.4803722837E+00  0.0000000000E+00  0.0000000000E+00  0.5533718709E-07 -0.6800172981E-03  0.1658438067E-04  0.0000000000E+00  0.0000000000E+00  0.0000000000E+00  0.4803722837E+00  0.9272553107E-04  0.6666757065E-04  0.0000000000E+00  0.0000000000E+00  0.0000000000E+00
7  0.2112821513E-03  0.6607964581E-04  0.7402007044E-05  0.7190040750E-05  0.5238717192E-03  0.7841491854E-04  0.5689827793E+00  0.6660741577E-07 -0.8003700189E-03  0.1846317928E-04  0.9875000000E+00  0.5689827793E+00  0.1086429951E-03  0.7841491854E-04  0.7841491854E-04  0.5689827793E+00  0.0000000000E+00  0.0000000000E+00  0.6660741577E-07 -0.8003700189E-03  0.1846317928E-04  0.0000000000E+00  0.0000000000E+00  0.0000000000E+00  0.5689827793E+00  0.1086429951E-03  0.7841491854E-04  0.0000000000E+00  0.0000000000E+00  0.0000000000E+00
8  0.2084634137E-03  0.6809107044E-04  0.8742333692E-05  0.8491654574E-05  0.5151174234E-03  0.9021203857E-04  0.6595527720E+00  0.7845810389E-07 -0.9215419758E-03  0.1998213069E-04  0.1035500000E+01  0.6595527720E+00  0.1244913454E-03  0.9021203857E-04  0.9021203857E-04  0.6595527720E+00  0.0000000000E+00  0.0000000000E+00  0.7845810389E-07 -0.9215419758E-03  0.1998213069E-04  0.0000000000E+00  0.0000000000E+00  0.0000000000E+00  0.6595527720E+00  0.1244913454E-03  0.9021203857E-04  0.0000000000E+00  0.0000000000E+00  0.0000000000E+00
9  0.2055674983E-03  0.7033987381E-04  0.1010503960E-04  0.9814933828E-05  0.5063096897E-03  0.1020056675E-03  0.7518888895E+00  0.9088010633E-07 -0.1043061613E-02  0.2110057792E-04  0.1075500000E+01  0.7518888895E+00  0.1401876900E-03  0.1020056675E-03  0.1020056675E-03  0.7518888895E+00  0.0000000000E+00  0.0000000000E+00  0.9088010633E-07 -0.1043061613E-02  0.2110057792E-04  0.0000000000E+00  0.0000000000E+00  0.0000000000E+00  0.7518888895E+00  0.1401876900E-03  0.1020056675E-03  0.0000000000E+00  0.0000000000E+00  0.0000000000E+00
10  0.2026011745E-03  0.7279505073E-04  0.1148703581E-04  0.1115689142E-04  0.4974771040E-03  0.1137407319E-03  0.8457930044E+00  0.1038613346E-06 -0.1164447965E-02  0.2177712623E-04  0.1111500000E+01  0.8457930044E+00  0.1556484855E-03  0.1137407319E-03  0.1137407319E-03  0.8457930044E+00  0.0000000000E+00  0.0000000000E+00  0.1038613346E-06 -0.1164447965E-02  0.2177712623E-04  0.0000000000E+00  0.0000000000E+00  0.0000000000E+00  0.8457930044E+00  0.1556484855E-03  0.1137407319E-03  0.0000000000E+00  0.0000000000E+00  0.0000000000E+00
11  0.1995717933E-03  0.7542495348E-04  0.1288521280E-04  0.1251452265E-04  0.4886481461E-03  0.1253585457E-03  0.9410626388E+00  0.1173859452E-06 -0.1285211254E-02  0.2197078413E-04  0.1145500000E+01  0.9410626388E+00  0.1707897321E-03  0.1253585457E-03  0.1253585457E-03  0.9410626388E+00  0.0000000000E+00  0.0000000000E+00  0.1173859452E-06 -0.1285211254E-02  0.2197078413E-04  0.0000000000E+00  0.0000000000E+00  0.0000000000E+00  0.9410626388E+00  0.1707897321E-03  0.1253585457E-03  0.0000000000E+00  0.0000000000E+00  0.0000000000E+00
12  0.1964872986E-03  0.7819841720E-04  0.1429644233E-04  0.1388480706E-04  0.4798511207E-03  0.1367993167E-03  0.1037491376E+01  0.1314333410E-06 -0.1404856080E-02  0.2164182619E-04  0.1178500000E+01  0.1037491376E+01  0.1855253979E-03  0.1367993167E-03  0.1367993167E-03  0.1037491376E+01  0.0000000000E+00  0.0000000000E+00  0.1314333410E-06 -0.1404856080E-02  0.2164182619E-04  0.0000000000E+00  0.0000000000E+00  0.0000000000E+00  0.1037491376E+01  0.1855253979E-03  0.1367993167E-03  0.0000000000E+00  0.0000000000E+00  0.0000000000E+00
13  0.1933562323E-03  0.8108554995E-04  0.1571757932E-04  0.1526471026E-04  0.4711140847E-03  0.1479949636E-03  0.1134869298E+01  0.1459804381E-06 -0.1522880405E-02  0.2075178784E-04  0.1210500000E+01  0.1134869298E+01  0.1997714439E-03  0.1479949636E-03  0.1479949636E-03  0.1134869298E+01  0.0000000000E+00  0.0000000000E+00  0.1459804381E-06 -0.1522880405E-02  0.2075178784E-04  0.0000000000E+00  0.0000000000E+00  0.0000000000E+00  0.1134869298E+01  0.1997714439E-03  0.1479949636E-03  0.0000000000E+00  0.0000000000E+00  0.0000000000E+00
14  0.1901877321E-03  0.8405823504E-04  0.1714546431E-04  0.1665118598E-04  0.4624647632E-03  0.1588886093E-03  0.1232983427E+01  0.1609985852E-06 -0.1638785018E-02  0.1926074078E-04  0.1244500000E+01  0.1232983427E+01  0.2134403694E-03  0.1588886093E-03  0.1588886093E-03  0.1232983427E+01  0.0000000000E+00  0.0000000000E+00  0.1609985852E-06 -0.1638785018E-02  0.1926074078E-04  0.0000000000E+00  0.0000000000E+00  0.0000000000E+00  0.1232983427E+01  0.2134403694E-03  0.1588886093E-03  0.0000000000E+00  0.0000000000E+00  0.0000000000E+00
15  0.1869915248E-03  0.8709040475E-04  0.1857692585E-04  0.1804117879E-04  0.4539304681E-03  0.1694219473E-03  0.1331618233E+01  0.1764565594E-06 -0.1752071679E-02  0.1712746937E-04  0.1278500000E+01  0.1331618233E+01  0.2264446503E-03  0.1694219473E-03  0.1694219473E-03  0.1331618233E+01  0.0000000000E+00  0.0000000000E+00  0.1764565594E-06 -0.1752071679E-02  0.1712746937E-04  0.0000000000E+00  0.0000000000E+00  0.0000000000E+00  0.1331618233E+01  0.2264446503E-03  0.1694219473E-03  0.0000000000E+00  0.0000000000E+00  0.0000000000E+00
16  0.1837779135E-03  0.9015814859E-04  0.2000878508E-04  0.1943162951E-04  0.4455380102E-03  0.1795414887E-03  0.1430556135E+01  0.1923187134E-06 -0.1862248696E-02  0.1431301423E-04  0.1312500000E+01  0.1430556135E+01  0.2386995951E-03  0.1795414887E-03  0.1795414887E-03  0.1430556135E+01  0.0000000000E+00  0.0000000000E+00  0.1923187134E-06 -0.1862248696E-02  0.1431301423E-04  0.0000000000E+00  0.0000000000E+00  0.0000000000E+00  0.1430556135E+01  0.2386995951E-03  0.1795414887E-03  0.0000000000E+00  0.0000000000E+00  0.0000000000E+00
17  0.1805577477E-03  0.9323970752E-04  0.2143786161E-04  0.2081947912E-04  0.4373135800E-03  0.1891976506E-03  0.1529578014E+01  0.2085460018E-06 -0.1968825057E-02  0.1077507801E-04  0.1344500000E+01  0.1529578014E+01  0.2501173798E-03  0.1891976506E-03  0.1891976506E-03  0.1529578014E+01  0.0000000000E+00  0.0000000000E+00  0.2085460018E-06 -0.1968825057E-02  0.1077507801E-04  0.0000000000E+00  0.0000000000E+00  0.0000000000E+00  0.1529578014E+01  0.2501173798E-03  0.1891976506E-03  0.0000000000E+00  0.0000000000E+00  0.0000000000E+00
18  0.1773423890E-03  0.9631539608E-04  0.2286097921E-04  0.2220167441E-04  0.4292826289E-03  0.1983349464E-03  0.1628463780E+01  0.2250959940E-06 -0.2071311960E-02  0.6476669160E-05  0.1376500000E+01  0.1628463780E+01  0.2606081482E-03  0.1983349464E-03  0.1983349464E-03  0.1628463780E+01  0.0000000000E+00  0.0000000000E+00  0.2250959940E-06 -0.2071311960E-02  0.6476669160E-05  0.0000000000E+00  0.0000000000E+00  0.0000000000E+00  0.1628463780E+01  0.2606081482E-03  0.1983349464E-03  0.0000000000E+00  0.0000000000E+00  0.0000000000E+00
19  0.1741436543E-03  0.9936748422E-04  0.2427497311E-04  0.2357517619E-04  0.4214697139E-03  0.2068776581E-03  0.1726992923E+01  0.2419215484E-06 -0.2169223576E-02  0.1371281275E-05  0.1410500000E+01  0.1726992923E+01  0.2700726843E-03  0.2068776581E-03  0.2068776581E-03  0.1726992923E+01  0.0000000000E+00  0.0000000000E+00  0.2419215484E-06 -0.2169223576E-02  0.1371281275E-05  0.0000000000E+00  0.0000000000E+00  0.0000000000E+00  0.1726992923E+01  0.2700726843E-03  0.2068776581E-03  0.0000000000E+00  0.0000000000E+00  0.0000000000E+00
20  0.1709737610E-03  0.1023800584E-03  0.2567669833E-04  0.2493696721E-04  0.4138983606E-03  0.2147754477E-03  0.1824945027E+01  0.2589807747E-06 -0.2262093420E-02 -0.4592275666E-05  0.1446500000E+01  0.1824945027E+01  0.2784043403E-03  0.2147754477E-03  0.2147754477E-03  0.1824945027E+01  0.0000000000E+00  0.0000000000E+00  0.2589807747E-06 -0.2262093420E-02 -0.4592275666E-05  0.0000000000E+00  0.0000000000E+00  0.0000000000E+00  0.1824945027E+01  0.2784043403E-03  0.2147754477E-03  0.0000000000E+00  0.0000000000E+00  0.0000000000E+00
21  0.1678452482E-03  0.1053388774E-03  0.2706303633E-04  0.2628405817E-04  0.4065908905E-03  0.2219570219E-03  0.1922100553E+01  0.2762231277E-06 -0.2349450040E-02 -0.1143030266E-04  0.1480500000E+01  0.1922100553E+01  0.2855389719E-03  0.2219570219E-03  0.2219570219E-03  0.1922100553E+01  0.0000000000E+00  0.0000000000E+00  0.2762231277E-06 -0.2349450040E-02 -0.1143030266E-04  0.0000000000E+00  0.0000000000E+00  0.0000000000E+00  0.1922100553E+01  0.2855389719E-03  0.2219570219E-03  0.0000000000E+00  0.0000000000E+00  0.0000000000E+00
22  0.1647708744E-03  0.1082312366E-03  0.2843091277E-04  0.2761350554E-04  0.3995682200E-03  0.2283448696E-03  0.2018241394E+01  0.2935943828E-06 -0.2430842422E-02 -0.1916235067E-04  0.1513500000E+01  0.2018241394E+01  0.2914225127E-03  0.2283448696E-03  0.2283448696E-03  0.2018241394E+01  0.0000000000E+00  0.0000000000E+00  0.2935943828E-06 -0.2430842422E-02 -0.1916235067E-04  0.0000000000E+00  0.0000000000E+00  0.0000000000E+00  0.2018241394E+01  0.2914225127E-03  0.2283448696E-03  0.0000000000E+00  0.0000000000E+00  0.0000000000E+00
23  0.1617635074E-03  0.1110458369E-03  0.2977730851E-04  0.2892241911E-04  0.3928496581E-03  0.2338525562E-03  0.2113151521E+01  0.3110427767E-06 -0.2505831343E-02 -0.2781063645E-04  0.1541500000E+01  0.2113151521E+01  0.2960122520E-03  0.2338525562E-03  0.2338525562E-03  0.2113151521E+01  0.0000000000E+00  0.0000000000E+00  0.3110427767E-06 -0.2505831343E-02 -0.2781063645E-04  0.0000000000E+00  0.0000000000E+00  0.0000000000E+00  0.2113151521E+01  0.2960122520E-03  0.2338525562E-03  0.0000000000E+00  0.0000000000E+00  0.0000000000E+00
24  0.1588359948E-03  0.1137726670E-03  0.3109927217E-04  0.3020797690E-04  0.3864526948E-03  0.2384219183E-03  0.2206617681E+01  0.3285059938E-06 -0.2573997906E-02 -0.3741255307E-04  0.1572500000E+01  0.2206617681E+01  0.2992370695E-03  0.2384219183E-03  0.2384219183E-03  0.2206617681E+01  0.0000000000E+00  0.0000000000E+00  0.3285059938E-06 -0.2573997906E-02 -0.3741255307E-04  0.0000000000E+00  0.0000000000E+00  0.0000000000E+00  0.2206617681E+01  0.2992370695E-03  0.2384219183E-03  0.0000000000E+00  0.0000000000E+00  0.0000000000E+00
25  0.1560009969E-03  0.1164029087E-03  0.3239393663E-04  0.3146743996E-04  0.3803927743E-03  0.2420184342E-03  0.2298430060E+01  0.3459194139E-06 -0.2634969408E-02 -0.4800719284E-04  0.1602500000E+01  0.2298430060E+01  0.3010337111E-03  0.2420184342E-03  0.2420184342E-03  0.2298430060E+01  0.0000000000E+00  0.0000000000E+00  0.3459194139E-06 -0.2634969408E-02 -0.4800719284E-04  0.0000000000E+00  0.0000000000E+00  0.0000000000E+00  0.2298430060E+01  0.3010337111E-03  0.2420184342E-03  0.0000000000E+00  0.0000000000E+00  0.0000000000E+00
26  0.1532708412E-03  0.1189288332E-03  0.3365853170E-04  0.3269816686E-04  0.3746830761E-03  0.2445965614E-03  0.2388382966E+01  0.3632292775E-06 -0.2688381178E-02 -0.5959010426E-04  0.1633500000E+01  0.2388382966E+01  0.3013866303E-03  0.2445965614E-03  0.2445965614E-03  0.2388382966E+01  0.0000000000E+00  0.0000000000E+00  0.3632292775E-06 -0.2688381178E-02 -0.5959010426E-04  0.0000000000E+00  0.0000000000E+00  0.0000000000E+00  0.2388382966E+01  0.3013866303E-03  0.2445965614E-03  0.0000000000E+00  0.0000000000E+00  0.0000000000E+00
27  0.1506573153E-03  0.1213437303E-03  0.3489039988E-04  0.3389762620E-04  0.3693342638E-03  0.2460581341E-03  0.2476275670E+01  0.3803745569E-06 -0.2733864962E-02 -0.7216906094E-04  0.1667500000E+01  0.2476275670E+01  0.3002632482E-03  0.2460581341E-03  0.2460581341E-03  0.2476275670E+01  0.0000000000E+00  0.0000000000E+00  0.3803745569E-06 -0.2733864962E-02 -0.7216906094E-04  0.0000000000E+00  0.0000000000E+00  0.0000000000E+00  0.2476275670E+01  0.3002632482E-03  0.2460581341E-03  0.0000000000E+00  0.0000000000E+00  0.0000000000E+00
28  0.1481714660E-03  0.1236418535E-03  0.3608702023E-04  0.3506341690E-04  0.3643543184E-03  0.2463298906E-03  0.2561913059E+01  0.3973051261E-06 -0.2771090631E-02 -0.8577074962E-04  0.1699500000E+01  0.2561913059E+01  0.2976169353E-03  0.2463298906E-03  0.2463298906E-03  0.2561913059E+01  0.0000000000E+00  0.0000000000E+00  0.3973051261E-06 -0.2771090631E-02 -0.8577074962E-04  0.0000000000E+00  0.0000000000E+00  0.0000000000E+00  0.2561913059E+01  0.2976169353E-03  0.2463298906E-03  0.0000000000E+00  0.0000000000E+00  0.0000000000E+00
29  0.1458233946E-03  0.1258183557E-03  0.3724602255E-04  0.3619328677E-04  0.3597483412E-03  0.2453695902E-03  0.2645106404E+01  0.4139588836E-06 -0.2799766907E-02 -0.1004069826E-03  0.1729500000E+01  0.2645106404E+01  0.2934262057E-03  0.2453695902E-03  0.2453695902E-03  0.2645106404E+01  0.0000000000E+00  0.0000000000E+00  0.4139588836E-06 -0.2799766907E-02 -0.1004069826E-03  0.0000000000E+00  0.0000000000E+00  0.0000000000E+00  0.2645106404E+01  0.2934262057E-03  0.2453695902E-03  0.0000000000E+00  0.0000000000E+00  0.0000000000E+00
30  0.1436220462E-03  0.1278692456E-03  0.3836520600E-04  0.3728514668E-04  0.3555184039E-03  0.2431351952E-03  0.2725674162E+01  0.4302797148E-06 -0.2819622299E-02 -0.1160641899E-03  0.1760500000E+01  0.2725674162E+01  0.2876663771E-03  0.2431351952E-03  0.2431351952E-03  0.2725674162E+01  0.0000000000E+00  0.0000000000E+00  0.4302797148E-06 -0.2819622299E-02 -0.1160641899E-03  0.0000000000E+00  0.0000000000E+00  0.0000000000E+00  0.2725674162E+01  0.2876663771E-03  0.2431351952E-03  0.0000000000E+00  0.0000000000E+00  0.0000000000E+00
31  0.1415749841E-03  0.1297913526E-03  0.3944255889E-04  0.3833709092E-04  0.3516634025E-03  0.2395245512E-03  0.2803442785E+01  0.4461962680E-06 -0.2830382163E-02 -0.1327469074E-03  0.1791500000E+01  0.2803442785E+01  0.2803221341E-03  0.2395245512E-03  0.2395245512E-03  0.2803442785E+01  0.0000000000E+00  0.0000000000E+00  0.4461962680E-06 -0.2830382163E-02 -0.1327469074E-03  0.0000000000E+00  0.0000000000E+00  0.0000000000E+00  0.2803442785E+01  0.2803221341E-03  0.2395245512E-03  0.0000000000E+00  0.0000000000E+00  0.0000000000E+00
32  0.1396881924E-03  0.1315822918E-03  0.4047627746E-04  0.3934741418E-04  0.3481789781E-03  0.2345883981E-03  0.2878247653E+01  0.4616216980E-06 -0.2831885905E-02 -0.1504318657E-03  0.1824700000E+01  0.2878247653E+01  0.2713689872E-03  0.2345883981E-03  0.2345883981E-03  0.2878247653E+01  0.0000000000E+00  0.0000000000E+00  0.4616216980E-06 -0.2831885905E-02 -0.1504318657E-03  0.0000000000E+00  0.0000000000E+00  0.0000000000E+00  0.2878247653E+01  0.2713689872E-03  0.2345883981E-03  0.0000000000E+00  0.0000000000E+00  0.0000000000E+00
33  0.1379659298E-03  0.1332404615E-03  0.4146478697E-04  0.4031463265E-04  0.3450576745E-03  0.2283318499E-03  0.2949933727E+01  0.4764985989E-06 -0.2823997011E-02 -0.1690714584E-03  0.1857500000E+01  0.2949933727E+01  0.2608382918E-03  0.2283318499E-03  0.2283318499E-03  0.2949933727E+01  0.0000000000E+00  0.0000000000E+00  0.4764985989E-06 -0.2823997011E-02 -0.1690714584E-03  0.0000000000E+00  0.0000000000E+00  0.0000000000E+00  0.2949933727E+01  0.2608382918E-03  0.2283318499E-03  0.0000000000E+00  0.0000000000E+00  0.0000000000E+00
34  0.1364105338E-03  0.1347649897E-03  0.4240675604E-04  0.4123749676E-04  0.3422887276E-03  0.2207730317E-03  0.3018356287E+01  0.4907772631E-06 -0.2806590350E-02 -0.1886013596E-03  0.1888500000E+01  0.3018356287E+01  0.2487848556E-03  0.2207730317E-03  0.2207730317E-03  0.3018356287E+01  0.0000000000E+00  0.0000000000E+00  0.4907772631E-06 -0.2806590350E-02 -0.1886013596E-03  0.0000000000E+00  0.0000000000E+00  0.0000000000E+00  0.3018356287E+01  0.2487848556E-03  0.2207730317E-03  0.0000000000E+00  0.0000000000E+00  0.0000000000E+00
35  0.1350223686E-03  0.1361557438E-03  0.4330110485E-04  0.4211500350E-04  0.3398584440E-03  0.2118845636E-03  0.3083381872E+01  0.5043950305E-06 -0.2779538939E-02 -0.2089300864E-03  0.1919500000E+01  0.3083381872E+01  0.2352996127E-03  0.2118845636E-03  0.2118845636E-03  0.3083381872E+01  0.0000000000E+00  0.0000000000E+00  0.5043950305E-06 -0.2779538939E-02 -0.2089300864E-03  0.0000000000E+00  0.0000000000E+00  0.0000000000E+00  0.3083381872E+01  0.2352996127E-03  0.2118845636E-03  0.0000000000E+00  0.0000000000E+00  0.0000000000E+00
36  0.1337997172E-03  0.1374132900E-03  0.4414703126E-04  0.4294641410E-04  0.3377501434E-03  0.2016742793E-03  0.3144889128E+01  0.5173170598E-06 -0.2742792032E-02 -0.2299851688E-03  0.1950500000E+01  0.3144889128E+01  0.2204654966E-03  0.2016742793E-03  0.2016742793E-03  0.3144889128E+01  0.0000000000E+00  0.0000000000E+00  0.5173170598E-06 -0.2742792032E-02 -0.2299851688E-03  0.0000000000E+00  0.0000000000E+00  0.0000000000E+00  0.3144889128E+01  0.2204654966E-03  0.2016742793E-03  0.0000000000E+00  0.0000000000E+00  0.0000000000E+00
37  0.1327388170E-03  0.1385389024E-03  0.4494402376E-04  0.4373126334E-04  0.3359445647E-03  0.1901703951E-03  0.3202769562E+01  0.5295037376E-06 -0.2696353723E-02 -0.2516952403E-03  0.1981500000E+01  0.3202769562E+01  0.2043646182E-03  0.1901703951E-03  0.1901703951E-03  0.3202769562E+01  0.0000000000E+00  0.0000000000E+00  0.5295037376E-06 -0.2696353723E-02 -0.2516952403E-03  0.0000000000E+00  0.0000000000E+00  0.0000000000E+00  0.3202769562E+01  0.2043646182E-03  0.1901703951E-03  0.0000000000E+00  0.0000000000E+00  0.0000000000E+00
38  0.1318339800E-03  0.1395345604E-03  0.4569187248E-04  0.4446937617E-04  0.3344204019E-03  0.1774891875E-03  0.3256927965E+01  0.5409043208E-06 -0.2640317778E-02 -0.2739300310E-03  0.2011500000E+01  0.3256927965E+01  0.1870871095E-03  0.1774891875E-03  0.1774891875E-03  0.3256927965E+01  0.0000000000E+00  0.0000000000E+00  0.5409043208E-06 -0.2640317778E-02 -0.2739300310E-03  0.0000000000E+00  0.0000000000E+00  0.0000000000E+00  0.3256927965E+01  0.1870871095E-03  0.1774891875E-03  0.0000000000E+00  0.0000000000E+00  0.0000000000E+00
39  0.1310776309E-03  0.1404028932E-03  0.4639066979E-04  0.4516087053E-04  0.3331543304E-03  0.1636466155E-03  0.3307283393E+01  0.5514855173E-06 -0.2574738501E-02 -0.2965269844E-03  0.2046500000E+01  0.3307283393E+01  0.1688040316E-03  0.1636466155E-03  0.1636466155E-03  0.3307283393E+01  0.0000000000E+00  0.0000000000E+00  0.5514855173E-06 -0.2574738501E-02 -0.2965269844E-03  0.0000000000E+00  0.0000000000E+00  0.0000000000E+00  0.3307283393E+01  0.1688040316E-03  0.1636466155E-03  0.0000000000E+00  0.0000000000E+00  0.0000000000E+00
40  0.1304605482E-03  0.1411471834E-03  0.4704082517E-04  0.4580616467E-04  0.3321216572E-03  0.1487471396E-03  0.3353769716E+01  0.5612091133E-06 -0.2499767833E-02 -0.3193877665E-03  0.2077500000E+01  0.3353769716E+01  0.1495767559E-03  0.1487471396E-03  0.1487471396E-03  0.3353769716E+01  0.0000000000E+00  0.0000000000E+00  0.5612091133E-06 -0.2499767833E-02 -0.3193877665E-03  0.0000000000E+00  0.0000000000E+00  0.0000000000E+00  0.3353769716E+01  0.1495767559E-03  0.1487471396E-03  0.0000000000E+00  0.0000000000E+00  0.0000000000E+00
41  0.1299720618E-03  0.1417713340E-03  0.4764306859E-04  0.4640598179E-04  0.3312966624E-03  0.1329274603E-03  0.3396336012E+01  0.5700319763E-06 -0.2415633917E-02 -0.3423876442E-03  0.2106500000E+01  0.3396336012E+01  0.1294881569E-03  0.1329274603E-03  0.1329274603E-03  0.3396336012E+01  0.0000000000E+00  0.0000000000E+00  0.5700319763E-06 -0.2415633917E-02 -0.3423876442E-03  0.0000000000E+00  0.0000000000E+00  0.0000000000E+00  0.3396336012E+01  0.1294881569E-03  0.1329274603E-03  0.0000000000E+00  0.0000000000E+00  0.0000000000E+00
42  0.1296003061E-03  0.1422798432E-03  0.4819843521E-04  0.4696134445E-04  0.3306530234E-03  0.1163061096E-03  0.3434947045E+01  0.5779291101E-06 -0.2322637789E-02 -0.3653050584E-03  0.2134500000E+01  0.3434947045E+01  0.1087270966E-03  0.1163061096E-03  0.1163061096E-03  0.3434947045E+01  0.0000000000E+00  0.0000000000E+00  0.5779291101E-06 -0.2322637789E-02 -0.3653050584E-03  0.0000000000E+00  0.0000000000E+00  0.0000000000E+00  0.3434947045E+01  0.1087270966E-03  0.1163061096E-03  0.0000000000E+00  0.0000000000E+00  0.0000000000E+00
43  0.1293325277E-03  0.1426777703E-03  0.4870827014E-04  0.4747356523E-04  0.3301643300E-03  0.9899293621E-04  0.3469583678E+01  0.5848575489E-06 -0.2221116202E-02 -0.3879470911E-03  0.2167500000E+01  0.3469583678E+01  0.8744589554E-04  0.9899293621E-04  0.9899293621E-04  0.3469583678E+01  0.0000000000E+00  0.0000000000E+00  0.5848575489E-06 -0.2221116202E-02 -0.3879470911E-03  0.0000000000E+00  0.0000000000E+00  0.0000000000E+00  0.3469583678E+01  0.8744589554E-04  0.9899293621E-04  0.0000000000E+00  0.0000000000E+00  0.0000000000E+00
44  0.1291553651E-03  0.1429706939E-03  0.4917422620E-04  0.4794424333E-04  0.3298044545E-03  0.8105580524E-04  0.3500243093E+01  0.5907870153E-06 -0.2111438524E-02 -0.4100886315E-03  0.2195500000E+01  0.3500243093E+01  0.6582021146E-04  0.8105580524E-04  0.8105580524E-04  0.3500243093E+01  0.0000000000E+00  0.0000000000E+00  0.5907870153E-06 -0.2111438524E-02 -0.4100886315E-03  0.0000000000E+00  0.0000000000E+00  0.0000000000E+00  0.3500243093E+01  0.6582021146E-04  0.8105580524E-04  0.0000000000E+00  0.0000000000E+00  0.0000000000E+00
45  0.1290551952E-03  0.1431646772E-03  0.4959824630E-04  0.4837525462E-04  0.3295480827E-03  0.6260760358E-04  0.3526938789E+01  0.5956997192E-06 -0.1994026794E-02 -0.4314978579E-03  0.2227500000E+01  0.3526938789E+01  0.4405371104E-04  0.6260760358E-04  0.6260760358E-04  0.3526938789E+01  0.0000000000E+00  0.0000000000E+00  0.5956997192E-06 -0.1994026794E-02 -0.4314978579E-03  0.0000000000E+00  0.0000000000E+00  0.0000000000E+00  0.3526938789E+01  0.4405371104E-04  0.6260760358E-04  0.0000000000E+00  0.0000000000E+00  0.0000000000E+00
46  0.1290183793E-03  0.1432662091E-03  0.4998254069E-04  0.4876873756E-04  0.3293709611E-03  0.4372808314E-04  0.3549700565E+01  0.5995569110E-06 -0.1869347888E-02 -0.4519431643E-03  0.2259500000E+01  0.3549700565E+01  0.2236801464E-04  0.4372808314E-04  0.4372808314E-04  0.3549700565E+01  0.0000000000E+00  0.0000000000E+00  0.5995569110E-06 -0.1869347888E-02 -0.4519431643E-03  0.0000000000E+00  0.0000000000E+00  0.0000000000E+00  0.3549700565E+01  0.2236801464E-04  0.4372808314E-04  0.0000000000E+00  0.0000000000E+00  0.0000000000E+00
47  0.1290315440E-03  0.1432821512E-03  0.5032957884E-04  0.4912707297E-04  0.3292502495E-03  0.2451171968E-04  0.3568574471E+01  0.6023374652E-06 -0.1737941160E-02 -0.4711790024E-03  0.2291500000E+01  0.3568574471E+01  0.9865055641E-06  0.2451171968E-04  0.2451171968E-04  0.3568574471E+01  0.0000000000E+00  0.0000000000E+00  0.6023374652E-06 -0.1737941160E-02 -0.4711790024E-03  0.0000000000E+00  0.0000000000E+00  0.0000000000E+00  0.3568574471E+01  0.9865055641E-06  0.2451171968E-04  0.0000000000E+00  0.0000000000E+00  0.0000000000E+00
48  0.1290817763E-03  0.1432196743E-03  0.5064206426E-04  0.4945285006E-04  0.3291646785E-03  0.5074791553E-05  0.3583622478E+01  0.6040378902E-06 -0.1600435665E-02 -0.4889643040E-03  0.2320500000E+01  0.3583622478E+01 -0.1989707900E-04  0.5074791553E-05  0.5074791553E-05  0.3583622478E+01  0.0000000000E+00  0.0000000000E+00  0.6040378902E-06 -0.1600435665E-02 -0.4889643040E-03  0.0000000000E+00  0.0000000000E+00  0.0000000000E+00  0.3583622478E+01 -0.1989707900E-04  0.5074791553E-05  0.0000000000E+00  0.0000000000E+00  0.0000000000E+00
49  0.1291568423E-03  0.1430861977E-03  0.5092290448E-04  0.4974884485E-04  0.3290948120E-03 -0.1447319504E-04  0.3594922174E+01  0.6046563343E-06 -0.1457504938E-02 -0.5050729048E-03  0.2349500000E+01  0.3594922174E+01 -0.4010169103E-04 -0.1447319504E-04 -0.1447319504E-04  0.3594922174E+01  0.0000000000E+00  0.0000000000E+00  0.6046563343E-06 -0.1457504938E-02 -0.5050729048E-03  0.0000000000E+00  0.0000000000E+00  0.0000000000E+00  0.3594922174E+01 -0.4010169103E-04 -0.1447319504E-04  0.0000000000E+00  0.0000000000E+00  0.0000000000E+00
50  0.1292453428E-03  0.1428893251E-03  0.5117518872E-04  0.5001800473E-04  0.3290231712E-03 -0.3402348510E-04  0.3602566237E+01  0.6041973374E-06 -0.1309864187E-02 -0.5192867853E-03  0.2381500000E+01  0.3602566237E+01 -0.5945661001E-04 -0.3402348510E-04 -0.3402348510E-04  0.3602566237E+01  0.0000000000E+00  0.0000000000E+00  0.6041973374E-06 -0.1309864187E-02 -0.5192867853E-03  0.0000000000E+00  0.0000000000E+00  0.0000000000E+00  0.3602566237E+01 -0.5945661001E-04 -0.3402348510E-04  0.0000000000E+00  0.0000000000E+00  0.0000000000E+00
51  0.1293368600E-03  0.1426367747E-03  0.5140214685E-04  0.5026341507E-04  0.3289343869E-03 -0.5346448773E-04  0.3606661735E+01  0.6026689179E-06 -0.1158281096E-02 -0.5314010207E-03  0.2418500000E+01  0.3606661735E+01 -0.7779930807E-04 -0.5346448773E-04 -0.5346448773E-04  0.3606661735E+01  0.0000000000E+00  0.0000000000E+00  0.6026689179E-06 -0.1158281096E-02 -0.5314010207E-03  0.0000000000E+00  0.0000000000E+00  0.0000000000E+00  0.3606661735E+01 -0.7779930807E-04 -0.5346448773E-04  0.0000000000E+00  0.0000000000E+00  0.0000000000E+00
52  0.1294220448E-03  0.1423362991E-03  0.5160712601E-04  0.5048826307E-04  0.3288152314E-03 -0.7266370012E-04  0.3607329411E+01  0.6000791753E-06 -0.1003566100E-02 -0.5412244513E-03  0.2458500000E+01  0.3607329411E+01 -0.9499620536E-04 -0.7266370012E-04 -0.7266370012E-04  0.3607329411E+01  0.0000000000E+00  0.0000000000E+00  0.6000791753E-06 -0.1003566100E-02 -0.5412244513E-03  0.0000000000E+00  0.0000000000E+00  0.0000000000E+00  0.3607329411E+01 -0.9499620536E-04 -0.7266370012E-04  0.0000000000E+00  0.0000000000E+00  0.0000000000E+00
53  0.1294926763E-03  0.1419956215E-03  0.5179354624E-04  0.5069580059E-04  0.3286546352E-03 -0.9146596016E-04  0.3604702794E+01  0.5964391014E-06 -0.8465766330E-03 -0.5485850535E-03  0.2493500000E+01  0.3604702794E+01 -0.1109084683E-03 -0.9146596016E-04 -0.9146596016E-04  0.3604702794E+01  0.0000000000E+00  0.0000000000E+00  0.5964391014E-06 -0.8465766330E-03 -0.5485850535E-03  0.0000000000E+00  0.0000000000E+00  0.0000000000E+00  0.3604702794E+01 -0.1109084683E-03 -0.9146596016E-04  0.0000000000E+00  0.0000000000E+00  0.0000000000E+00
54  0.1295417091E-03  0.1416223621E-03  0.5196487999E-04  0.5088931674E-04  0.3284436917E-03 -0.1097346042E-03  0.3598927236E+01  0.5917665774E-06 -0.6881983948E-03 -0.5533209016E-03  0.2529500000E+01  0.3598927236E+01 -0.1254012262E-03 -0.1097346042E-03 -0.1097346042E-03  0.3598927236E+01  0.0000000000E+00  0.0000000000E+00  0.5917665774E-06 -0.6881983948E-03 -0.5533209016E-03  0.0000000000E+00  0.0000000000E+00  0.0000000000E+00  0.3598927236E+01 -0.1254012262E-03 -0.1097346042E-03  0.0000000000E+00  0.0000000000E+00  0.0000000000E+00