title="tecplot geometry and solution file"
variables=x y z rho u v w p
zone t="processor 5", solutiontime= 0.1800000E+04, strandid=0, n=3009, e=14009, f=feblock, et=tetrahedron
 -0.140441574446E+00 -0.140441456755E+00 -0.178473548227E+00 -0.196880178578E+00 -0.178473563326E+00 -0.178472819572E+00 -0.193901754803E+00
 -0.215035498033E+00 -0.215035566833E+00 -0.242385168903E+00 -0.251988171350E+00 -0.287891263215E+00 -0.243065675962E+00 -0.215035191753E+00
 -0.178469940121E+00 -0.215032848473E+00 -0.239154046391E+00 -0.249644547958E+00 -0.250232013224E+00 -0.250330492906E+00 -0.299826815220E+00
 -0.279277613693E+00 -0.325883741984E+00 -0.325680949917E+00 -0.397285547425E+00 -0.353394666420E+00 -0.250325021671E+00 -0.215047142123E+00
 -0.250308897635E+00 -0.296203457614E+00 -0.283127545902E+00 -0.287721113852E+00 -0.287667210298E+00 -0.377026784408E+00 -0.344829778273E+00
 -0.419406816120E+00 -0.371053506196E+00 -0.444770300202E+00 -0.527252421830E+00 -0.490613639174E+00 -0.410606520119E+00 -0.491085930092E+00
 -0.352603316551E+00 -0.411328012965E+00 -0.358704602186E+00 -0.287627799229E+00 -0.250274532052E+00 -0.287462560571E+00 -0.319641038590E+00
 -0.328059542410E+00 -0.328008318547E+00 -0.457920013817E+00 -0.358666394673E+00 -0.391305380698E+00 -0.406652918353E+00 -0.456228239138E+00
 -0.396424014985E+00 -0.533906540440E+00 -0.428867222326E+00 -0.497221458059E+00 -0.387063684331E+00 -0.501459484742E+00 -0.621674952024E+00
 -0.575310573088E+00 -0.565589199812E+00 -0.565984535243E+00 -0.561249569094E+00 -0.449735866738E+00 -0.378885770817E+00 -0.453345898396E+00
 -0.521857475641E+00 -0.488430487054E+00 -0.517611019116E+00 -0.327834843117E+00 -0.358588121886E+00 -0.256953569294E+00 -0.284179684455E+00
 -0.326109255247E+00 -0.323140887023E+00 -0.357985997459E+00 -0.472043487140E+00 -0.524528011852E+00 -0.396070291433E+00 -0.396016398739E+00
 -0.412800310289E+00 -0.396690592819E+00 -0.442636057374E+00 -0.448709682531E+00 -0.453532530104E+00 -0.523018775490E+00 -0.486965413908E+00
 -0.434204438458E+00 -0.630925429711E+00 -0.640089240817E+00 -0.589377673954E+00 -0.433628652844E+00 -0.527813402841E+00 -0.390719081003E+00
 -0.710651638736E+00 -0.637342442389E+00 -0.637018665642E+00 -0.612059528810E+00 -0.565641258475E+00 -0.587094093351E+00 -0.592972332138E+00
 -0.624238957256E+00 -0.504467938213E+00 -0.493889381570E+00 -0.458880270832E+00 -0.358227675688E+00 -0.361875571339E+00 -0.412238425327E+00
 -0.402369553783E+00 -0.495783242389E+00 -0.589063327687E+00 -0.533625033789E+00 -0.540993741959E+00 -0.477719669457E+00 -0.468840574993E+00
 -0.536528353533E+00 -0.395861401402E+00 -0.281045317718E+00 -0.299653773249E+00 -0.337903027324E+00 -0.332994237307E+00 -0.370728765397E+00
 -0.470694247661E+00 -0.506352692135E+00 -0.565222472346E+00 -0.542522944127E+00 -0.428330195248E+00 -0.428297775915E+00 -0.428232863823E+00
 -0.443960500270E+00 -0.428412504405E+00 -0.486320675313E+00 -0.428086795569E+00 -0.465344425575E+00 -0.482199377382E+00 -0.517562077479E+00
 -0.616857593687E+00 -0.566247469697E+00 -0.455432999794E+00 -0.534715044604E+00 -0.544496314824E+00 -0.676057474987E+00 -0.712701712498E+00
 -0.707845679159E+00 -0.676762258211E+00 -0.619747392688E+00 -0.583784738398E+00 -0.528135417974E+00 -0.425945723826E+00 -0.769241110614E+00
 -0.696459086442E+00 -0.709030642374E+00 -0.655305743466E+00 -0.706639469960E+00 -0.684000301025E+00 -0.634729572982E+00 -0.638254462276E+00
 -0.647549944230E+00 -0.627906393404E+00 -0.591024726754E+00 -0.591463355860E+00 -0.577075578777E+00 -0.586369790429E+00 -0.728411191420E+00
 -0.671364552846E+00 -0.396594448218E+00 -0.397869310192E+00 -0.371559521847E+00 -0.436042286752E+00 -0.356992475087E+00 -0.412272024646E+00
 -0.467208289319E+00 -0.537468264151E+00 -0.477676188104E+00 -0.544651186048E+00 -0.492159959500E+00 -0.602430612460E+00 -0.594472740707E+00
 -0.648889174021E+00 -0.505165173872E+00 -0.547636324613E+00 -0.486872899168E+00 -0.494573300173E+00 -0.320476843283E+00 -0.375373003408E+00
 -0.407593123667E+00 -0.455432187901E+00 -0.455433556727E+00 -0.503783160613E+00 -0.546791361844E+00 -0.553541069493E+00 -0.592472207157E+00
 -0.547194922808E+00 -0.455427015614E+00 -0.455331850132E+00 -0.427710232941E+00 -0.481184790460E+00 -0.495257490955E+00 -0.518010335901E+00
 -0.455114414101E+00 -0.562837054130E+00 -0.520852815442E+00 -0.635701942378E+00 -0.682257661730E+00 -0.631869619093E+00 -0.512850243023E+00
 -0.575393867193E+00 -0.593959493406E+00 -0.478696327497E+00 -0.551452126955E+00 -0.530657249163E+00 -0.733115298163E+00 -0.767016747334E+00
 -0.787693337191E+00 -0.753238662277E+00 -0.782931812627E+00 -0.718162214655E+00 -0.686238207133E+00 -0.633108595578E+00 -0.538061125750E+00
 -0.555868032571E+00 -0.456158732335E+00 -0.467380573674E+00 -0.765382983682E+00 -0.825627497340E+00 -0.753335266718E+00 -0.710864078144E+00
 -0.778808544060E+00 -0.628571817407E+00 -0.675928355702E+00 -0.728815560782E+00 -0.733676376583E+00 -0.674200721051E+00 -0.705019867731E+00
 -0.630403157111E+00 -0.609932736734E+00 -0.655907327356E+00 -0.644341132055E+00 -0.583697939429E+00 -0.589319977169E+00 -0.649223897225E+00
 -0.595348267247E+00 -0.700002645695E+00 -0.764137468626E+00 -0.819457031890E+00 -0.731837597300E+00 -0.395810531779E+00 -0.425444009691E+00
 -0.468884166459E+00 -0.439520658281E+00 -0.578519448476E+00 -0.576543073724E+00 -0.501623652078E+00 -0.527970331279E+00 -0.566372425680E+00
 -0.535313383871E+00 -0.528866422487E+00 -0.454409440380E+00 -0.480900819337E+00 -0.481055904065E+00 -0.639550393430E+00 -0.631166248769E+00
 -0.634249987159E+00 -0.612106426256E+00 -0.655218269954E+00 -0.616399197947E+00 -0.702501671464E+00 -0.481166057664E+00 -0.517389457749E+00
 -0.505324258622E+00 -0.393380736634E+00 -0.404666048969E+00 -0.433005066788E+00 -0.426737234634E+00 -0.481184969412E+00 -0.481185075840E+00
 -0.506166935250E+00 -0.534619275629E+00 -0.538225939956E+00 -0.584655620244E+00 -0.541642622172E+00 -0.561783546839E+00 -0.506165588016E+00
 -0.506166866514E+00 -0.539579515689E+00 -0.569963192562E+00 -0.562601230435E+00 -0.604482005061E+00 -0.506150506692E+00 -0.704724323138E+00
 -0.664084840838E+00 -0.481323323732E+00 -0.545268246698E+00 -0.642975765662E+00 -0.579789178786E+00 -0.567767679947E+00 -0.645609029643E+00
 -0.467928428470E+00 -0.505165508757E+00 -0.566796355680E+00 -0.501865103497E+00 -0.511209638796E+00 -0.569670203704E+00 -0.724685626980E+00
 -0.837422153437E+00 -0.854119349707E+00 -0.840994962123E+00 -0.906920128898E+00 -0.733546092049E+00 -0.776001403504E+00 -0.883340472207E+00
 -0.714304500864E+00 -0.634124356226E+00 -0.642774184565E+00 -0.562020749733E+00 -0.510394530105E+00 -0.561685515078E+00 -0.470063013442E+00
 -0.439008918245E+00 -0.490386088680E+00 -0.468365313480E+00 -0.803656985176E+00 -0.910729426214E+00 -0.844192980097E+00 -0.877440936201E+00
 -0.820447040065E+00 -0.761794214681E+00 -0.783654247098E+00 -0.805680427580E+00 -0.746739234513E+00 -0.698956009557E+00 -0.679939353201E+00
 -0.793284191603E+00 -0.730602546569E+00 -0.696967238098E+00 -0.779706776266E+00 -0.746549009680E+00 -0.707023867023E+00 -0.715362969131E+00
 -0.668100745067E+00 -0.646888427150E+00 -0.692651851410E+00 -0.617310265178E+00 -0.653008268044E+00 -0.652846491893E+00 -0.564436326142E+00
 -0.584292604393E+00 -0.620132611185E+00 -0.688913756831E+00 -0.611977801140E+00 -0.685822627961E+00 -0.819981198780E+00 -0.800101388686E+00
 -0.915104761356E+00 -0.807282581356E+00 -0.733281810163E+00 -0.427134987614E+00 -0.454254585634E+00 -0.485650178403E+00 -0.609898540388E+00
 -0.566578139335E+00 -0.574219488055E+00 -0.480803618712E+00 -0.506047207219E+00 -0.516863486462E+00 -0.506099702584E+00 -0.602538720876E+00
 -0.552727638500E+00 -0.530330085890E+00 -0.530330085890E+00 -0.515258463836E+00 -0.678007798133E+00 -0.668827024830E+00 -0.642719187860E+00
 -0.618819575735E+00 -0.630474265846E+00 -0.744040830831E+00 -0.516209671244E+00 -0.411292326166E+00 -0.427852686728E+00 -0.457683392908E+00
 -0.395988084470E+00 -0.426149468889E+00 -0.486449278149E+00 -0.464705616164E+00 -0.530330085890E+00 -0.530330085890E+00 -0.580976133314E+00
 -0.603084626897E+00 -0.530330085890E+00 -0.530330085890E+00 -0.552103673017E+00 -0.530330085890E+00 -0.552091115290E+00 -0.552085993979E+00
 -0.585084738959E+00 -0.552181371825E+00 -0.589971760635E+00 -0.632733751066E+00 -0.574561147730E+00 -0.753482009096E+00 -0.677121362047E+00
 -0.641997367407E+00 -0.708562352598E+00 -0.462312907613E+00 -0.434922797156E+00 -0.551331444729E+00 -0.607398277511E+00 -0.683748215277E+00
 -0.553095176584E+00 -0.610624463644E+00 -0.532394863009E+00 -0.505671334437E+00 -0.464984396099E+00 -0.434680271080E+00 -0.512652701356E+00
 -0.555711845303E+00 -0.666036293640E+00 -0.599656603676E+00 -0.882559003867E+00 -0.805545030774E+00 -0.929673531920E+00 -0.949687290393E+00
 -0.916300326853E+00 -0.101020521564E+01 -0.895018119177E+00 -0.974926993981E+00 -0.725506680367E+00 -0.813342363667E+00 -0.749458812000E+00
 -0.687388208865E+00 -0.540024449647E+00 -0.582746311015E+00 -0.494082225464E+00 -0.578029164974E+00 -0.391095600088E+00 -0.520463445230E+00
 -0.456648560133E+00 -0.453708023465E+00 -0.772238823956E+00 -0.827686957405E+00 -0.767115747463E+00 -0.937421798500E+00 -0.868910219032E+00
 -0.941536809013E+00 -0.818380309720E+00 -0.874042234462E+00 -0.893399310393E+00 -0.768620118691E+00 -0.740659908020E+00 -0.775149385872E+00
 -0.812556928563E+00 -0.686047491237E+00 -0.669507346164E+00 -0.706353438814E+00 -0.735729813904E+00 -0.710118265082E+00 -0.719370255027E+00
 -0.771285943983E+00 -0.694517517923E+00 -0.725476276427E+00 -0.678999145312E+00 -0.815502646171E+00 -0.736104756862E+00 -0.666218955772E+00
 -0.692977078860E+00 -0.697876205769E+00 -0.691836550480E+00 -0.744502988822E+00 -0.651371951302E+00 -0.693320466173E+00 -0.649921298499E+00
 -0.648629780767E+00 -0.552118934253E+00 -0.572334034545E+00 -0.572372671462E+00 -0.572283419519E+00 -0.609729320212E+00 -0.606058654663E+00
 -0.648119325523E+00 -0.640403413874E+00 -0.637549904572E+00 -0.702474192851E+00 -0.697465489691E+00 -0.853372260081E+00 -0.755793749221E+00
 -0.785391550817E+00 -0.815670834626E+00 -0.906845472597E+00 -0.849679988715E+00 -0.894534251462E+00 -0.795101671349E+00 -0.740306266123E+00
 -0.722006092321E+00 -0.480471122476E+00 -0.537947774501E+00 -0.583924676905E+00 -0.552347282985E+00 -0.585281451588E+00 -0.506002584970E+00
 -0.620054103973E+00 -0.579098603817E+00 -0.607109411239E+00 -0.505851154536E+00 -0.552429102470E+00 -0.530330085890E+00 -0.480439163848E+00
 -0.504136308326E+00 -0.660278619595E+00 -0.674198730586E+00 -0.676269340628E+00 -0.665800148242E+00 -0.650240361592E+00 -0.658871612207E+00
 -0.608372297356E+00 -0.613387784142E+00 -0.637204153149E+00 -0.598975361432E+00 -0.724639850755E+00 -0.477744045024E+00 -0.540542830279E+00
 -0.537271049598E+00 -0.443245361933E+00 -0.428452077101E+00 -0.380780710919E+00 -0.414200402558E+00 -0.395986726645E+00 -0.467195147923E+00
 -0.410706989924E+00 -0.453371997782E+00 -0.567976388104E+00 -0.519552600237E+00 -0.572380653017E+00 -0.608077009205E+00 -0.591327628192E+00
 -0.627435590365E+00 -0.591314437938E+00 -0.635241636656E+00 -0.572393752004E+00 -0.573075457374E+00 -0.661361280131E+00 -0.625457604678E+00
 -0.572767589556E+00 -0.508214897384E+00 -0.624626379701E+00 -0.713203742212E+00 -0.752979565275E+00 -0.599418869419E+00 -0.625986545360E+00
 -0.673825250009E+00 -0.730156867141E+00 -0.691868310443E+00 -0.686233855348E+00 -0.766935927845E+00 -0.502434128360E+00 -0.484540212892E+00
 -0.440791946891E+00 -0.561267844518E+00 -0.608286784706E+00 -0.631824743071E+00 -0.511573689634E+00 -0.566567857473E+00 -0.468737885203E+00
 -0.493514354208E+00 -0.456091158997E+00 -0.409515920844E+00 -0.541775004333E+00 -0.630983019241E+00 -0.919114512142E+00 -0.977347031804E+00
 -0.841372761496E+00 -0.858810227490E+00 -0.913808441040E+00 -0.103971154318E+01 -0.114203317667E+01 -0.991208339715E+00 -0.920880612830E+00
 -0.105631771184E+01 -0.739137200557E+00 -0.810676369827E+00 -0.779422314219E+00 -0.647290842671E+00 -0.700541739320E+00 -0.564087448969E+00
 -0.597829537442E+00 -0.549150662004E+00 -0.459428304786E+00 -0.486606194372E+00 -0.505864422887E+00 -0.521737629598E+00 -0.502352104684E+00
 -0.560787304636E+00 -0.361518022651E+00 -0.376366615396E+00 -0.737021612747E+00 -0.792021594630E+00 -0.887877023068E+00 -0.855322188516E+00
 -0.844115302644E+00 -0.100271152095E+01 -0.952552270808E+00 -0.963639364544E+00 -0.841916184177E+00 -0.866220750920E+00 -0.927799833491E+00
 -0.912527648802E+00 -0.777095434108E+00 -0.782512431246E+00 -0.829616250729E+00 -0.757835103444E+00 -0.815197918306E+00 -0.792882174061E+00
 -0.835202392075E+00 -0.690041293535E+00 -0.671154951801E+00 -0.701383553247E+00 -0.731279371027E+00 -0.756154177390E+00 -0.751428491311E+00
 -0.706831047146E+00 -0.682001954304E+00 -0.719707624218E+00 -0.693884248818E+00 -0.781318549462E+00 -0.809546342347E+00 -0.736080745172E+00
 -0.669191472031E+00 -0.686178852385E+00 -0.697789909633E+00 -0.638097227626E+00 -0.747706079829E+00 -0.645932193233E+00 -0.734568085309E+00
 -0.591154334777E+00 -0.591008317829E+00 -0.635868564596E+00 -0.608840334364E+00 -0.655156871286E+00 -0.632915277185E+00 -0.714538582329E+00
 -0.670756143147E+00 -0.708626338879E+00 -0.898194618371E+00 -0.849347111492E+00 -0.685546420725E+00 -0.725393014414E+00 -0.822024497872E+00
 -0.808139380063E+00 -0.908626534025E+00 -0.100010929437E+01 -0.100134594465E+01 -0.927769808461E+00 -0.872783420037E+00 -0.809569218962E+00
 -0.911479336838E+00 -0.846810389340E+00 -0.762179048705E+00 -0.786040257507E+00 -0.697771165825E+00 -0.707301704043E+00 -0.530330085890E+00
 -0.552770744843E+00 -0.552703246612E+00 -0.575224809071E+00 -0.611343733406E+00 -0.586320189346E+00 -0.573804938853E+00 -0.574040704678E+00
 -0.593889549688E+00 -0.595539188862E+00 -0.593467128705E+00 -0.530330085890E+00 -0.670755140565E+00 -0.632206201349E+00 -0.657443749741E+00
 -0.680488341279E+00 -0.634614321060E+00 -0.656966227830E+00 -0.591114441646E+00 -0.608191879616E+00 -0.607395312734E+00 -0.628517350018E+00
 -0.617519862961E+00 -0.560407380789E+00 -0.593356896594E+00 -0.530330085890E+00 -0.540750045008E+00 -0.445602108680E+00 -0.428452163380E+00
 -0.469252040662E+00 -0.377417381530E+00 -0.411293041493E+00 -0.450621449695E+00 -0.402782222515E+00 -0.443246605914E+00 -0.496254249707E+00
 -0.592250873045E+00 -0.537410280869E+00 -0.609025325527E+00 -0.625935128130E+00 -0.656600243095E+00 -0.608400689873E+00 -0.601817946549E+00
 -0.785369784976E+00 -0.682381332090E+00 -0.636128099347E+00 -0.539723927565E+00 -0.607448715554E+00 -0.665398918494E+00 -0.702281903749E+00
 -0.761926985306E+00 -0.841135958516E+00 -0.720182946951E+00 -0.761932321906E+00 -0.478929198795E+00 -0.442393825853E+00 -0.524080197931E+00
 -0.579272134691E+00 -0.621892910918E+00 -0.643718155205E+00 -0.495479195512E+00 -0.524687142420E+00 -0.576703813590E+00 -0.603622764407E+00
 -0.435890172990E+00 -0.496350729352E+00 -0.440606214600E+00 -0.485002718797E+00 -0.350433697954E+00 -0.365549063854E+00 -0.525915678208E+00
 -0.679081010233E+00 -0.663759596076E+00 -0.833594245003E+00 -0.100608620311E+01 -0.888201647843E+00 -0.111458147553E+01 -0.966343276316E+00
 -0.907687184803E+00 -0.112076499340E+01 -0.118540601463E+01 -0.970717774149E+00 -0.107324091663E+01 -0.105701385340E+01 -0.775852431518E+00
 -0.873270349250E+00 -0.720540786045E+00 -0.787938017589E+00 -0.603785076495E+00 -0.608797532238E+00 -0.701446985125E+00 -0.562191151921E+00
 -0.561728181083E+00 -0.529646454296E+00 -0.475242442363E+00 -0.516940698227E+00 -0.503551310564E+00 -0.486606294641E+00 -0.459428642206E+00
 -0.342094133537E+00 -0.731316397401E+00 -0.861586116430E+00 -0.906899563744E+00 -0.887187227344E+00 -0.104501501293E+01 -0.979663144969E+00
 -0.930008744771E+00 -0.101066099679E+01 -0.873919434936E+00 -0.926327369410E+00 -0.990135196983E+00 -0.934703628893E+00 -0.918739703599E+00
 -0.861995598133E+00 -0.742233502523E+00 -0.765271326437E+00 -0.784259789041E+00 -0.801179355450E+00 -0.857543459898E+00 -0.742760518546E+00
 -0.826911330507E+00 -0.798047793711E+00 -0.798513869134E+00 -0.878140031048E+00 -0.840178417474E+00 -0.888285315388E+00 -0.689160317521E+00
 -0.698516859312E+00 -0.677978692195E+00 -0.720928481463E+00 -0.769887775496E+00 -0.778603366567E+00 -0.768758147681E+00 -0.737542761154E+00
 -0.663606465201E+00 -0.687082392017E+00 -0.658460730524E+00 -0.688007120215E+00 -0.695876089228E+00 -0.761368542078E+00 -0.666990745385E+00
 -0.704002972662E+00 -0.790780294413E+00 -0.812349385144E+00 -0.743812172450E+00 -0.879483010704E+00 -0.828803477200E+00 -0.703239128784E+00
 -0.666333125886E+00 -0.658485015228E+00 -0.611762556063E+00 -0.614908736143E+00 -0.743766197875E+00 -0.729354597756E+00 -0.774017202906E+00
 -0.608649015838E+00 -0.639086978492E+00 -0.701311659865E+00 -0.687745896705E+00 -0.735173858034E+00 -0.625057259836E+00 -0.624364472181E+00
 -0.623484470461E+00 -0.643926445623E+00 -0.621184905404E+00 -0.682106369902E+00 -0.679028327038E+00 -0.627522575468E+00 -0.690826875133E+00
 -0.730536798813E+00 -0.706674105944E+00 -0.870421041317E+00 -0.876849569576E+00 -0.743280682105E+00 -0.832729267958E+00 -0.769258210343E+00
 -0.818740729371E+00 -0.911740006819E+00 -0.957113790827E+00 -0.103438865697E+01 -0.100701977132E+01 -0.113180386547E+01 -0.106405373418E+01
 -0.961234554315E+00 -0.969872729091E+00 -0.912274055677E+00 -0.813377055911E+00 -0.905134666755E+00 -0.825608052095E+00 -0.770061082946E+00
 -0.769806620971E+00 -0.688416708312E+00 -0.653608001546E+00 -0.551672350543E+00 -0.572871832012E+00 -0.595144390436E+00 -0.567364107655E+00
 -0.604231712400E+00 -0.579257368818E+00 -0.647613309235E+00 -0.653970737628E+00 -0.637094184839E+00 -0.664537498357E+00 -0.636366754376E+00
 -0.631686784392E+00 -0.609570905670E+00 -0.588152991186E+00 -0.618424978847E+00 -0.542542634737E+00 -0.581536538069E+00 -0.559059746815E+00
 -0.530330085890E+00 -0.516940698227E+00 -0.393398136841E+00 -0.358935865254E+00 -0.427850147561E+00 -0.456648443425E+00 -0.464888051315E+00
 -0.490960798621E+00 -0.406834324771E+00 -0.477745536879E+00 -0.534222716918E+00 -0.523824574655E+00 -0.586386636689E+00 -0.552898604703E+00
 -0.625884214989E+00 -0.641600385420E+00 -0.642189538054E+00 -0.642035356010E+00 -0.674133303897E+00 -0.615181099738E+00 -0.677419997252E+00
 -0.781905693500E+00 -0.502266037170E+00 -0.477675785426E+00 -0.550538254269E+00 -0.582627511191E+00 -0.601817490787E+00 -0.660931898981E+00
 -0.626526404900E+00 -0.688674954776E+00 -0.677966156490E+00 -0.777522123631E+00 -0.782445837783E+00 -0.892065753982E+00 -0.712604213020E+00
 -0.476133206721E+00 -0.402281714166E+00 -0.568547960594E+00 -0.612946702540E+00 -0.662927166598E+00 -0.448197634981E+00 -0.583022395620E+00
 -0.654866749219E+00 -0.399358521821E+00 -0.371895130377E+00 -0.435268676647E+00 -0.501287106304E+00 -0.404675140730E+00 -0.519945300547E+00
 -0.465274102002E+00 -0.322924388855E+00 -0.302374312749E+00 -0.340302132607E+00 -0.508855263435E+00 -0.489380689475E+00 -0.705465584650E+00
 -0.716673257261E+00 -0.993828762330E+00 -0.905084102419E+00 -0.102453319070E+01 -0.106013700961E+01 -0.903528672107E+00 -0.120022906717E+01
 -0.852502744837E+00 -0.101610586137E+01 -0.122369119469E+01 -0.122234304122E+01 -0.110457761259E+01 -0.102658148138E+01 -0.118240742530E+01
 -0.109301250952E+01 -0.770859096136E+00 -0.765955326681E+00 -0.805566830200E+00 -0.709038156177E+00 -0.778146030159E+00 -0.577736840392E+00
 -0.600592917616E+00 -0.560256051020E+00 -0.530330085890E+00 -0.505864605667E+00 -0.738037426244E+00 -0.702625866527E+00 -0.696508084009E+00
 -0.935606413721E+00 -0.826752910649E+00 -0.949929424158E+00 -0.948366172825E+00 -0.881712435360E+00 -0.110440885338E+01 -0.100318838735E+01
 -0.994770216638E+00 -0.104618285368E+01 -0.985783469903E+00 -0.953242366873E+00 -0.102197732706E+01 -0.110716053312E+01 -0.989151675610E+00
 -0.102455274922E+01 -0.901002180093E+00 -0.919934565299E+00 -0.878648604165E+00 -0.845724054347E+00 -0.780617692869E+00 -0.862208964109E+00
 -0.840073626566E+00 -0.816248444003E+00 -0.719506708913E+00 -0.769878459000E+00 -0.746106094352E+00 -0.804305805957E+00 -0.798121095593E+00
 -0.856886143560E+00 -0.803061402569E+00 -0.869087188813E+00 -0.935564065394E+00 -0.909817262148E+00 -0.900267635636E+00 -0.655973588850E+00
 -0.655169739070E+00 -0.756946948709E+00 -0.702516972212E+00 -0.801613187005E+00 -0.754654218968E+00 -0.797299742474E+00 -0.776655144380E+00
 -0.723963334118E+00 -0.720883432883E+00 -0.704813227333E+00 -0.638707794211E+00 -0.640329809650E+00 -0.654307967676E+00 -0.653917794378E+00
 -0.669032413650E+00 -0.669340826071E+00 -0.668806952679E+00 -0.666718824804E+00 -0.789830136078E+00 -0.728189606308E+00 -0.684073612850E+00
 -0.803683830368E+00 -0.756601916308E+00 -0.846941961995E+00 -0.713098154156E+00 -0.825944087800E+00 -0.706503447163E+00 -0.645323053664E+00
 -0.650545442799E+00 -0.626281740365E+00 -0.733463190529E+00 -0.748987128709E+00 -0.702489634161E+00 -0.638514272306E+00 -0.669052774839E+00
 -0.684657593461E+00 -0.700179430889E+00 -0.678496456058E+00 -0.709233824434E+00 -0.630672716476E+00 -0.663819663678E+00 -0.608789329589E+00
 -0.636822474566E+00 -0.697453511587E+00 -0.667340762227E+00 -0.608337538727E+00 -0.587235328548E+00 -0.646031608781E+00 -0.675555400477E+00
 -0.746122952493E+00 -0.695791284899E+00 -0.690787499027E+00 -0.733694537620E+00 -0.925663344398E+00 -0.878452690732E+00 -0.906523238265E+00
 -0.941582849362E+00 -0.878860334191E+00 -0.821700798260E+00 -0.853928385133E+00 -0.821595035199E+00 -0.984328875536E+00 -0.870495690744E+00
 -0.784234231306E+00 -0.723934667355E+00 -0.767793159440E+00 -0.834053493759E+00 -0.817169732527E+00 -0.739512022330E+00 -0.902808406859E+00
 -0.990561451733E+00 -0.960771991790E+00 -0.104103365364E+01 -0.112167358048E+01 -0.108841001593E+01 -0.127270374332E+01 -0.111337807829E+01
 -0.814124584900E+00 -0.731071148974E+00 -0.790260576100E+00 -0.648825993814E+00 -0.554188642127E+00 -0.577337668096E+00 -0.599512898128E+00
 -0.609314597212E+00 -0.641229269702E+00 -0.628709254198E+00 -0.630281304938E+00 -0.649492305218E+00 -0.620624496748E+00 -0.609570919685E+00
 -0.657028329303E+00 -0.542542634559E+00 -0.567364104965E+00 -0.551672345088E+00 -0.375365609661E+00 -0.427134401712E+00 -0.453706682573E+00
 -0.480440203032E+00 -0.454252450571E+00 -0.480472063513E+00 -0.518182875358E+00 -0.533574118950E+00 -0.504136740169E+00 -0.558322834412E+00
 -0.530330085890E+00 -0.562329834020E+00 -0.560917461419E+00 -0.610508218789E+00 -0.655178350168E+00 -0.572885496342E+00 -0.643928666756E+00
 -0.648989091980E+00 -0.774400578739E+00 -0.456550169767E+00 -0.516024304188E+00 -0.528889412567E+00 -0.456189307607E+00 -0.540610394707E+00
 -0.618388687597E+00 -0.584122249676E+00 -0.616033937677E+00 -0.667864902112E+00 -0.638158849843E+00 -0.635818855599E+00 -0.737889308214E+00
 -0.796089861631E+00 -0.632935386613E+00 -0.831583525526E+00 -0.692406023954E+00 -0.951227612828E+00 -0.683348940721E+00 -0.394510294307E+00
 -0.568266288314E+00 -0.576245273088E+00 -0.667371159452E+00 -0.418089949063E+00 -0.451943526684E+00 -0.628067922009E+00 -0.721683314001E+00
 -0.677692295778E+00 -0.371597586282E+00 -0.357045971971E+00 -0.395795857019E+00 -0.320546777937E+00 -0.337942785912E+00 -0.499203716877E+00
 -0.524986605569E+00 -0.425444301118E+00 -0.427704276761E+00 -0.454407180691E+00 -0.397870017067E+00 -0.473103520313E+00 -0.442456702382E+00
 -0.507077577273E+00 -0.511467787252E+00 -0.649076143238E+00 -0.720387687380E+00 -0.756656124291E+00 -0.708155640583E+00 -0.106931483980E+01
 -0.924821966744E+00 -0.118111700545E+01 -0.120244089582E+01 -0.993922454077E+00 -0.943008491729E+00 -0.124369464708E+01 -0.853236037823E+00
 -0.855777719816E+00 -0.755224380033E+00 -0.106105328182E+01 -0.104603496068E+01 -0.129741504328E+01 -0.120593666823E+01 -0.117361982516E+01
 -0.103199451059E+01 -0.115044285672E+01 -0.106687056344E+01 -0.784889943300E+00 -0.755994214037E+00 -0.768064368900E+00 -0.660651858793E+00
 -0.584864872610E+00 -0.572871780730E+00 -0.552703195850E+00 -0.732402260510E+00 -0.682947810542E+00 -0.682372806058E+00 -0.681882844186E+00
 -0.667087757486E+00 -0.981881455832E+00 -0.987184604522E+00 -0.863197774328E+00 -0.880886673839E+00 -0.933789401495E+00 -0.875922595083E+00
 -0.109843437732E+01 -0.112652628756E+01 -0.105139190323E+01 -0.980214826006E+00 -0.106653226033E+01 -0.984113548503E+00 -0.936541055214E+00
 -0.979188485535E+00 -0.897547650840E+00 -0.935666169039E+00 -0.112908884088E+01 -0.101004692598E+01 -0.107478289413E+01 -0.112559343777E+01
 -0.103004280077E+01 -0.872409502825E+00 -0.851611539143E+00 -0.894609037862E+00 -0.747384557097E+00 -0.815671462331E+00 -0.889750692264E+00
 -0.837142425041E+00 -0.811769914106E+00 -0.754441376332E+00 -0.786277337920E+00 -0.758729393217E+00 -0.687576485535E+00 -0.701808307322E+00
 -0.708338441086E+00 -0.769697181544E+00 -0.770906333754E+00 -0.737802916644E+00 -0.809050699879E+00 -0.845681996420E+00 -0.880426453657E+00
 -0.827584368129E+00 -0.766767492676E+00 -0.814121292698E+00 -0.786635315013E+00 -0.822152405091E+00 -0.875164748667E+00 -0.940497564209E+00
 -0.948338139114E+00 -0.920623608008E+00 -0.862153118494E+00 -0.921262267937E+00 -0.672168680020E+00 -0.689305036290E+00 -0.679743798967E+00
 -0.731624790020E+00 -0.774919144200E+00 -0.774792990901E+00 -0.737370671169E+00 -0.822272703078E+00 -0.769415978315E+00 -0.695001700842E+00
 -0.695126675324E+00 -0.706508880772E+00 -0.693423304463E+00 -0.705675175560E+00 -0.819770406079E+00 -0.698617113540E+00 -0.703067433804E+00
 -0.739998596884E+00 -0.662966875571E+00 -0.715710355872E+00 -0.678809412246E+00 -0.709635898403E+00 -0.721354062672E+00 -0.673911350862E+00
 -0.640538664193E+00 -0.659105703531E+00 -0.667289619718E+00 -0.676170706762E+00 -0.630281317491E+00 -0.649492299933E+00 -0.675275247750E+00
 -0.656404122726E+00 -0.713806725803E+00 -0.672511695678E+00 -0.655788977250E+00 -0.608203550706E+00 -0.624991599215E+00 -0.588152975525E+00
 -0.624153021182E+00 -0.605869520006E+00 -0.570805124172E+00 -0.587443947800E+00 -0.738281827799E+00 -0.694890639283E+00 -0.714162833383E+00
 -0.652678914028E+00 -0.772403820535E+00 -0.730455390035E+00 -0.923779872836E+00 -0.985036465757E+00 -0.949618779603E+00 -0.815879435268E+00
 -0.865307401879E+00 -0.879029857361E+00 -0.906559206743E+00 -0.829044056874E+00 -0.773055706850E+00 -0.833126641754E+00 -0.849203957976E+00
 -0.787418478356E+00 -0.104098855320E+01 -0.813440694546E+00 -0.758468490278E+00 -0.728346046158E+00 -0.761150764178E+00 -0.661732126242E+00
 -0.666198757272E+00 -0.767092012642E+00 -0.798722042978E+00 -0.847433657862E+00 -0.677724425315E+00 -0.101928380607E+01 -0.929790023133E+00
 -0.955442067765E+00 -0.991905676454E+00 -0.113196669159E+01 -0.107740893953E+01 -0.116117412076E+01 -0.736119187555E+00 -0.760032916349E+00
 -0.693169280736E+00 -0.850912490688E+00 -0.803678838637E+00 -0.782446178892E+00 -0.595144224238E+00 -0.575224684224E+00 -0.618425015812E+00
 -0.608648648225E+00 -0.648806845823E+00 -0.593466362370E+00 -0.627161431919E+00 -0.505851600006E+00 -0.480803276775E+00 -0.506002725584E+00
 -0.506046304092E+00 -0.514652715801E+00 -0.537659918165E+00 -0.550180847322E+00 -0.577319582657E+00 -0.530330085890E+00 -0.530330085890E+00
 -0.552770629052E+00 -0.531258838880E+00 -0.606316350290E+00 -0.402872715835E+00 -0.472572089728E+00 -0.437066292131E+00 -0.475578083039E+00
 -0.501601025864E+00 -0.543514161068E+00 -0.550482263566E+00 -0.428635339197E+00 -0.617130515993E+00 -0.603902077085E+00 -0.540241931776E+00
 -0.578765852015E+00 -0.609980967918E+00 -0.805311370980E+00 -0.861726369580E+00 -0.687005260155E+00 -0.555821371467E+00 -0.610863229378E+00
 -0.566148617173E+00 -0.749012435471E+00 -0.636026572481E+00 -0.980918134408E+00 -0.654716583401E+00 -0.326159347051E+00 -0.361886685413E+00
 -0.402523728853E+00 -0.554091105309E+00 -0.562616554871E+00 -0.541601837205E+00 -0.611473380536E+00 -0.676692426222E+00 -0.450151368014E+00
 -0.617728110947E+00 -0.650655019800E+00 -0.714294245710E+00 -0.666833173330E+00 -0.504038136107E+00 -0.396595906035E+00 -0.428080476856E+00
 -0.455109624959E+00 -0.480899420181E+00 -0.463239584918E+00 -0.395849392287E+00 -0.516110311093E+00 -0.485972378422E+00 -0.492507825644E+00
 -0.690958651218E+00 -0.676264055996E+00 -0.719479209091E+00 -0.121240004458E+01 -0.786021668702E+00 -0.958826687535E+00 -0.124877971144E+01
 -0.115653248634E+01 -0.127007765592E+01 -0.951676185968E+00 -0.143019084752E+01 -0.130626932098E+01 -0.945385399368E+00 -0.856493717001E+00
 -0.896981413433E+00 -0.767482900472E+00 -0.678270384840E+00 -0.670492693538E+00 -0.105913507402E+01 -0.106045099314E+01 -0.136125906925E+01
 -0.123599093773E+01 -0.124320217933E+01 -0.119216743120E+01 -0.114034372516E+01 -0.106933579389E+01 -0.102887063814E+01 -0.973437531191E+00
 -0.116209921106E+01 -0.104811567287E+01 -0.104819192929E+01 -0.997291470342E+00 -0.106613277661E+01 -0.764859404890E+00 -0.715643648512E+00
 -0.631959628029E+00 -0.644061139511E+00 -0.705523487606E+00 -0.693010938297E+00 -0.702677844131E+00 -0.745503420038E+00 -0.741263929250E+00
 -0.745758527114E+00 -0.989514776072E+00 -0.101875665577E+01 -0.971774331879E+00 -0.864139579521E+00 -0.911355330902E+00 -0.836375206092E+00
 -0.848420298924E+00 -0.885421868717E+00 -0.946471381246E+00 -0.102194199302E+01 -0.950207968127E+00 -0.834847607155E+00 -0.114883399727E+01
 -0.110230939706E+01 -0.109705958497E+01 -0.101345466698E+01 -0.918838053447E+00 -0.952266640732E+00 -0.919769004225E+00 -0.960009437084E+00
 -0.108631710821E+01 -0.110591990296E+01 -0.879214276209E+00 -0.900489364606E+00 -0.881735593822E+00 -0.878521497117E+00 -0.948576392580E+00
 -0.117946001448E+01 -0.104989049165E+01 -0.107029141190E+01 -0.102685269907E+01 -0.832041310783E+00 -0.808482861247E+00 -0.862546847084E+00
 -0.768941663094E+00 -0.859712665394E+00 -0.774987663951E+00 -0.729407875577E+00 -0.758601838394E+00 -0.813026110523E+00 -0.715488991551E+00
 -0.659809563516E+00 -0.667289594286E+00 -0.657028305902E+00 -0.688351676996E+00 -0.683499324209E+00 -0.673911135352E+00 -0.777608589709E+00