title="tecplot geometry and solution file"
variables=x y z rho u v w p
zone t="processor 9", solutiontime= 0.1000000E+01, strandid=0, n=3060, e=14665, f=feblock, et=tetrahedron
 -0.606601717798E-01 -0.606601717798E-01 -0.606601717798E-01  0.243395119939E-03 -0.606601717798E-01 -0.263198032832E-02 -0.606601717798E-01
  0.922054470954E-02 -0.606601717798E-01 -0.606601717798E-01 -0.109139763587E-01 -0.170262588347E-02  0.745855663421E-01  0.100435895601E-01
  0.669591873520E-01  0.361665997748E-02 -0.606601717798E-01 -0.606601717798E-01 -0.169856560671E-02  0.787703181954E-01  0.679082558082E-01
 -0.606601717798E-01  0.583985726856E-01 -0.606601717798E-01 -0.531743450514E-01 -0.606601717798E-01  0.173011185243E-01  0.154260782958E-03
  0.846371443615E-01 -0.188781250899E-01  0.512795220684E-01  0.206136071964E-01  0.103998585344E+00  0.162043903304E+00  0.431916644607E-02
  0.997920232808E-01  0.133198496294E+00  0.839114012927E-01  0.547996948929E-02  0.716354792534E-01  0.746725553712E-02 -0.606601717798E-01
 -0.606601717798E-01  0.119843343586E-01 -0.606601717798E-01 -0.606601717798E-01  0.726039392363E-01  0.145500379632E+00  0.145023692836E+00
  0.126259830652E+00 -0.606601717798E-01 -0.262336804533E-01  0.225658082521E-01 -0.606601717798E-01  0.392025662392E-02  0.115642223339E+00
  0.341464562546E-01  0.239475224079E-02  0.653150532413E-01  0.174324981333E+00  0.682461149280E-01 -0.652024868059E-01 -0.574754171252E-01
  0.296670070954E-01  0.114302510030E+00 -0.429943835707E-02  0.896271313719E-01  0.145919728819E+00  0.221816880863E+00  0.196169267407E+00
  0.216672084430E+00  0.679583586454E-01  0.114280770982E+00  0.200233111656E+00  0.230392979100E+00  0.146719564939E+00  0.791617189291E-01
  0.152734034828E+00  0.610642896991E-02  0.834942590498E-01  0.140638943341E+00  0.148976648461E-03 -0.606601717798E-01 -0.606601717798E-01
 -0.606601717798E-01  0.139791037152E-01  0.757220601279E-01  0.764854028755E-01  0.185392679976E-01 -0.606601717798E-01 -0.606601717798E-01
  0.256653951212E+00  0.229963728432E+00  0.242253664866E+00  0.152720860527E+00  0.761237630513E-01 -0.606601717798E-01 -0.365138379919E-01
 -0.443511053071E-01  0.637172353966E-01  0.114041281815E+00 -0.606601717798E-01 -0.556128793812E-02 -0.274440166373E-02  0.704779080989E-01
  0.185161337707E-01  0.139524347272E+00  0.217967690894E+00  0.208354770606E+00  0.249841543903E+00 -0.129587460676E+00 -0.671017356589E-01
 -0.793558207145E-01 -0.210971785804E-01  0.153536431892E-01  0.421621069028E-01  0.103386848236E+00  0.938433045140E-01  0.183375883971E+00
  0.101464511768E+00  0.228473003214E+00  0.222849721156E+00  0.306873478835E+00  0.328037835158E+00  0.334367960443E+00  0.202615211233E+00
  0.294796305915E+00  0.361393076486E+00  0.137448168314E+00  0.134422646294E+00  0.326723557967E+00  0.317250306056E+00  0.249179033334E+00
  0.251656053497E+00  0.136029336661E+00  0.771650356820E-01  0.170746219504E+00  0.117713487826E+00  0.246736883407E+00  0.270061924610E+00
  0.161671299306E+00  0.202415958880E+00 -0.606601717798E-01  0.784547763525E-03  0.159669383457E+00  0.642310973208E-02  0.241116052688E-02
 -0.606601717798E-01 -0.606601717798E-01 -0.606601717798E-01 -0.606601717798E-01  0.437672495726E-02  0.103852013231E+00  0.614251701801E-01
  0.838598466536E-01  0.166523190292E+00  0.118385572858E+00 -0.606601717798E-01  0.371927241617E-02 -0.606601717798E-01 -0.606601717798E-01
  0.329023194348E+00  0.340691260662E+00  0.224404369577E+00  0.305569959577E+00  0.295653360753E+00  0.117882886101E+00  0.152127489053E+00
  0.178480374124E-01  0.802418623146E-01 -0.606601717798E-01 -0.112730148944E+00  0.915882028810E-01 -0.291886699725E-02 -0.566483971676E-01
  0.162426625917E+00 -0.606601717798E-01 -0.606601717798E-01  0.545974959070E-02  0.220633943525E-02  0.646722806803E-01 -0.235898684940E-01
  0.465647286546E-01  0.410478918559E-01  0.205335832021E+00  0.267113902505E+00  0.340274835279E+00  0.252555469797E+00  0.399437727083E+00
 -0.185363417417E+00 -0.131121578320E+00 -0.705455059476E-01 -0.944912671496E-01  0.735653002766E-01 -0.350996400142E-01 -0.334959063327E-01
  0.125011584741E+00  0.160747177129E+00  0.112867672530E+00  0.314514705853E-01  0.144440718776E+00  0.137093436012E+00  0.260441560458E+00
  0.238096980629E+00  0.143331278679E+00  0.247628906212E+00  0.278640116900E+00  0.411607720398E+00  0.434212754670E+00  0.435371579864E+00
  0.432768967073E+00  0.501802673729E+00  0.432854016547E+00  0.417130129664E+00  0.432137317134E+00  0.220277623917E+00  0.407422829482E+00
  0.405820009867E+00  0.358693420984E+00  0.467625149097E+00  0.159654388933E+00  0.296999674856E+00  0.325055033808E+00  0.238634227228E+00
  0.158326659102E+00  0.775001732626E-01  0.268723001862E+00  0.258745946687E+00  0.207380622061E+00  0.339582646355E+00  0.262682378499E+00
  0.414898741433E+00  0.334872496054E+00  0.229541473820E+00  0.176320023530E+00 -0.606601717798E-01  0.346825848142E-02  0.150735780011E+00
  0.206408443910E+00 -0.606601717798E-01 -0.606601717798E-01 -0.606601717798E-01  0.561135610847E-03  0.447414994643E-01 -0.601131676399E-02
  0.746543947620E-02 -0.606601717798E-01  0.161897162745E-02  0.153896666627E+00  0.129598859572E+00  0.195643498377E+00  0.686423020241E-01
  0.924099467554E-01  0.239051502526E-01  0.187017724196E+00  0.269273512695E+00  0.125193551871E+00 -0.606601717798E-01 -0.606601717798E-01
 -0.606601717798E-01 -0.606601717798E-01 -0.606601717798E-01  0.387288285865E+00  0.451862476022E+00  0.444037088955E+00  0.327193798962E+00
  0.248138659431E+00  0.241734934633E+00  0.337738913475E+00  0.424119555287E+00  0.417024010344E+00  0.657197688773E-01  0.405223255444E-01
 -0.995779214459E-01 -0.107086807472E+00  0.377125982273E-01 -0.978307911351E-01  0.161416805326E+00 -0.606601717798E-01 -0.606601717798E-01
 -0.507872172314E-02  0.136878396451E-01 -0.606601717798E-01  0.249237788143E-02 -0.303348665105E-01  0.798782334008E-01  0.116500204051E+00
 -0.232172631803E-01  0.655042399049E-01  0.469778041629E-01  0.482464114916E-01  0.360362800281E+00  0.393570172653E+00  0.237320581810E+00
  0.380542416513E+00  0.526726466544E+00 -0.232846333276E+00 -0.205733792855E+00 -0.127337465220E+00 -0.140724403882E+00 -0.118769543123E+00
 -0.996165100003E-01  0.176619291001E+00 -0.691891916196E-01  0.153100393627E-02 -0.920644425078E-01 -0.299454266426E-01  0.216194655666E+00
  0.654518441189E-01  0.132315210344E+00  0.407825633045E-01  0.174599724291E+00  0.279437878571E+00 -0.834547453053E-01 -0.104139245535E-01
  0.137577829011E+00  0.138665124916E+00  0.225220726300E+00  0.190000366867E+00  0.328078162724E+00  0.311774623310E+00  0.227811238178E+00
  0.129416720356E+00  0.430515602826E+00  0.288515516942E+00  0.562048345325E+00  0.524893216985E+00  0.532527944893E+00  0.614432968894E+00
  0.559201017721E+00  0.552010699249E+00  0.544640118125E+00  0.429088158461E+00  0.520298822121E+00  0.146186843099E+00  0.344994659768E+00
  0.446011193629E+00  0.465953223854E+00  0.344369031018E+00  0.624932078638E+00  0.102985796370E+00  0.226221195060E+00  0.409428708678E+00
  0.441561348054E+00  0.302212783818E+00  0.185049444468E+00  0.119287397522E+00  0.422950687791E-01  0.285600309541E+00  0.288220111774E+00
  0.395677298705E+00  0.370776237725E+00  0.455387969553E+00  0.285131368813E+00  0.521448497250E+00  0.453701460419E+00  0.428970697585E+00
  0.404829981736E+00 -0.606601717798E-01  0.220379816943E+00  0.209882990178E+00 -0.606601717798E-01 -0.606601717798E-01 -0.606601717798E-01
  0.654455615546E-02 -0.606601717798E-01 -0.124063547964E-01  0.841571515740E-01  0.109289446450E+00 -0.109720072759E-02  0.200384737333E-02
  0.796976217143E-01  0.143022320516E+00  0.170455492221E+00  0.816281105347E-01  0.226878413796E+00  0.115880237359E-01 -0.606601717798E-01
 -0.606601717798E-01  0.318863622595E-02  0.216127261929E+00  0.252603584918E+00  0.248278735324E+00  0.346824930926E+00  0.343875523132E+00
  0.132605127781E+00  0.148549605024E+00  0.708256444288E-01 -0.606601717798E-01 -0.606601717798E-01 -0.606601717798E-01  0.560957220957E+00
  0.612691790666E+00  0.489906924946E+00  0.341453993069E+00  0.395034261818E+00  0.300093014208E+00  0.344263516491E+00  0.432236001636E+00
  0.451046022465E+00  0.584583787700E+00  0.549749877757E+00  0.469952264722E+00  0.529657093610E-02 -0.483126894988E-01 -0.223910941292E+00
 -0.143143052419E+00 -0.146078223752E+00 -0.151963727410E+00  0.152356979678E+00 -0.606601717798E-01  0.299429140968E-02 -0.606601717798E-01
  0.736377989461E-01  0.267087025555E-01 -0.212491987111E-01 -0.814655487993E-01 -0.238641980006E-01  0.795906180972E-01  0.121472059034E+00
  0.760996971305E-01  0.305826763944E-01  0.436362757704E-01  0.511039638000E+00  0.423395337433E+00  0.417319412571E+00  0.657028865695E+00
  0.677880803896E+00 -0.250529421852E+00 -0.295492397368E+00 -0.274760623621E+00 -0.181130149531E+00 -0.174262297795E+00 -0.219557650961E+00
 -0.202866769351E+00 -0.132909828340E+00 -0.112225093329E+00 -0.162912208515E+00 -0.826197699481E-01  0.268256572995E+00 -0.666597762819E-01
 -0.879984451672E-01 -0.760094989089E-01  0.849381567236E-01 -0.134682655781E-01  0.296250914103E+00  0.133934108360E-02  0.835095444959E-01
 -0.382865453388E-01  0.144317729368E+00  0.222619726702E+00  0.184595708161E+00 -0.113940745740E+00  0.242832580938E+00  0.331203024927E+00
  0.338677900209E+00 -0.220789841349E-01  0.159372876363E+00  0.215055753134E+00  0.270716293609E+00  0.336119999635E+00  0.261026134364E+00
  0.253724601174E+00  0.179387951888E+00  0.208798933720E+00  0.108296753647E+00  0.650417647147E+00  0.690285732915E+00  0.820051289520E+00
  0.647766940222E+00  0.696030936544E+00  0.673278886731E+00  0.377727001487E+00  0.483574666942E+00  0.581302929729E+00  0.720902941906E+00
  0.218321039696E+00  0.462394452657E+00  0.308873359887E+00  0.222822699522E+00  0.168551103555E+00  0.754838737461E-01 -0.346584503779E-02
  0.893113863778E-01  0.333530270066E+00  0.307330581437E+00  0.473339018100E+00  0.579108573236E+00  0.582234159736E+00  0.459145770498E+00
  0.423712300174E+00  0.544243465956E+00  0.441645039510E+00 -0.606601717798E-01 -0.606601717798E-01  0.229790359529E+00  0.252019605462E+00
  0.148972138926E+00 -0.606601717798E-01 -0.606601717798E-01  0.723674926239E-02 -0.606601717798E-01 -0.599664020288E-03  0.707555443336E-01
  0.620698809552E-01  0.732132502009E-01  0.148321610484E+00 -0.606601717798E-01 -0.606601717798E-01  0.114646456156E-01  0.205758135952E-01
  0.101103702108E+00  0.194803218379E+00  0.170185708323E+00  0.101722219733E+00  0.310706087002E+00  0.229899260130E+00  0.247983099380E+00
 -0.606601717798E-01 -0.606601717798E-01  0.264599172099E-02 -0.625590590518E-02 -0.606601717798E-01 -0.606601717798E-01  0.929645138959E-02
  0.830783709069E-02  0.285906917345E+00  0.318461947656E+00  0.281476911649E+00  0.367048749401E+00  0.416838417463E+00  0.720991511861E-01
  0.132575396087E+00 -0.606601717798E-01 -0.606601717798E-01  0.691578088944E+00  0.633260610137E+00  0.791247875876E+00  0.552539153206E+00
  0.409523115090E+00  0.346602076255E+00  0.327792719356E+00  0.446214402979E+00  0.595103097629E+00  0.461670544486E+00  0.701016447612E+00
  0.612871357269E+00  0.475607935696E+00  0.621262969376E+00  0.690497075574E+00 -0.526734064220E-02 -0.493372322517E-02 -0.194592979355E+00
 -0.206472861838E+00 -0.606601717798E-01 -0.606601717798E-01  0.803108564699E-01 -0.606601717798E-01 -0.105598976170E-02  0.907124226631E-01
  0.787118072599E-02 -0.874390174196E-01 -0.840767707358E-01  0.181539840184E+00  0.116016350217E+00  0.186952612395E-01  0.415782108805E-02
 -0.279603667709E-01  0.117701299279E+00  0.496479471402E+00  0.418954265312E+00  0.488852492901E+00  0.838624432303E+00  0.850486293335E+00
 -0.309592544884E+00 -0.275527153609E+00 -0.172655771614E+00 -0.228474997115E+00 -0.216686300115E+00 -0.184044182484E+00 -0.130986774353E+00
 -0.177705575823E+00 -0.140150272137E+00 -0.169746344321E+00  0.260976131389E+00 -0.160221900815E+00 -0.519483626931E-01 -0.175199849216E+00
 -0.966937406287E-01  0.561351514232E-01  0.237403485643E+00  0.482017327244E-01 -0.890660996892E-01  0.188896318491E+00  0.285017660755E+00
  0.450215322275E+00  0.397509859498E+00  0.413522984079E+00  0.307120693647E+00  0.217108418770E+00  0.132572805430E+00  0.175776428382E+00
  0.403546616340E+00  0.295012228050E+00  0.393526344464E+00  0.267386876614E+00  0.280583299317E+00  0.153122525474E+00  0.560957596061E-01
  0.831191520669E+00  0.863647970899E+00  0.746356101079E+00  0.911821938030E+00  0.501223290008E+00  0.636699461920E+00  0.808530287103E+00
  0.950110288617E-01  0.165923071106E+00  0.105126507762E+00  0.178949090815E+00  0.148301508136E-01  0.206799785338E-01  0.387820003637E+00
  0.276454321221E+00  0.358116722244E+00  0.532413298709E+00  0.614933828791E+00  0.618170690517E+00  0.480110609562E+00  0.674370732085E+00
  0.757279662095E+00  0.452752180597E+00  0.567432073157E+00  0.549845950299E+00  0.721316406591E+00  0.513499218873E+00  0.651077448122E+00
  0.369919998887E+00  0.389303386853E+00 -0.606601717798E-01 -0.606601717798E-01  0.193618249805E+00  0.170178713719E+00  0.267506439511E+00
  0.238606842109E+00  0.113492655013E+00  0.131032080853E+00  0.933265677303E-01 -0.606601717798E-01  0.879497419465E-03  0.616207582119E-01
  0.120891304708E-01  0.189401284796E-01  0.851959099153E-01  0.186149451918E+00  0.154251845911E+00 -0.606601717798E-01 -0.606601717798E-01
 -0.606601717798E-01  0.570760492549E-02 -0.606601717798E-01  0.663842208383E-01 -0.736048582806E-03  0.302152583964E+00  0.179594020819E+00
  0.243376538806E+00  0.635833820953E-01  0.130488756164E+00  0.371294948165E+00  0.284010042021E+00  0.190477541566E+00 -0.606601717798E-01
 -0.606601717798E-01 -0.606601717798E-01 -0.606601717798E-01 -0.817992244946E-02 -0.606601717798E-01  0.390986981717E-01 -0.606601717798E-01
  0.633333800591E-02  0.281683963145E-03  0.275224482527E+00  0.275047905296E+00  0.347016009040E+00  0.459349442936E+00  0.111561620400E+00
 -0.606601717798E-01 -0.606601717798E-01  0.671434862135E+00  0.780912058951E+00  0.840015107703E+00  0.646054128173E+00  0.568641152895E+00
  0.735007682422E+00  0.965495916218E+00  0.926503458359E+00  0.827395030300E+00  0.394375874510E+00  0.382368270154E+00  0.362001662722E+00
  0.530119793580E+00  0.501183093426E+00  0.495841531172E+00  0.627134036954E+00  0.790316139018E+00  0.535639040705E+00  0.694830631741E+00
  0.703764683100E+00  0.667681639158E+00  0.678986536035E+00 -0.606601717798E-01 -0.496669167848E-02 -0.606601717798E-01  0.327258202064E-01
 -0.606601717798E-01 -0.101217304439E+00  0.109525867823E+00 -0.101200560803E+00 -0.122669454299E+00 -0.777300928678E-01  0.155646755413E-01
  0.777574875789E-01 -0.412850592056E-01 -0.136955514204E+00 -0.213404149492E+00 -0.102269681176E+00  0.206154767543E+00  0.230272634576E+00
  0.110215667056E-02  0.567849809417E-01 -0.530309714007E-01  0.151955545562E+00  0.550894915779E+00  0.506646799633E+00  0.104730901831E+01
 -0.236671573190E+00 -0.274749300097E+00 -0.314831588479E+00 -0.167351159556E+00 -0.207429521906E+00  0.380774970602E+00  0.296176432847E+00
 -0.250954788730E+00 -0.203081444287E+00 -0.167425225826E+00 -0.683045443634E-01 -0.133155279923E+00 -0.989648635171E-01 -0.405695841927E-02
  0.124137129236E-01  0.148426226372E+00  0.346530745073E+00  0.113594336346E+00  0.455188085455E+00  0.444771060146E+00  0.261362977893E+00
  0.266339735763E+00  0.118919794809E+00  0.191671759927E+00  0.611767791815E-01  0.375194984430E+00  0.447024972439E+00  0.312763425140E+00
  0.348106024675E+00  0.221755156362E+00  0.129736962096E+00  0.257995050435E-01 -0.338734449543E-02  0.941341677331E+00  0.925030261102E+00
  0.103504602340E+01  0.854167319010E+00  0.973866449873E+00  0.103457556949E+01  0.574827990562E+00  0.480051336728E+00  0.602502485684E+00
  0.630093815541E+00  0.724152323840E+00  0.786115397959E-01  0.953030943925E-01  0.212515272738E+00  0.119749437933E+00  0.112575134886E+00
  0.201272516964E+00  0.154487935971E+00  0.139469434939E+00  0.277999236201E+00  0.250863141378E+00  0.654483349273E-01 -0.606601717798E-01
 -0.606601717798E-01  0.141371409954E-01  0.401820608294E+00  0.349985115991E+00  0.772742810303E+00  0.665571710524E+00  0.374436689693E+00
  0.421282689778E+00  0.490810380697E+00  0.468863406336E+00  0.908516860646E+00  0.833688593989E+00  0.474678467882E+00  0.573477838354E+00
  0.685276985736E+00  0.511079232365E+00  0.573458198041E+00  0.880841036135E+00  0.584164288800E+00  0.682876666612E+00  0.765012327175E+00
  0.317164410892E+00  0.292358593592E+00  0.378083011122E+00 -0.606601717798E-01  0.157280921130E+00  0.182894173143E+00  0.129222225550E+00
  0.227090467410E+00  0.276139503454E+00  0.193269735982E+00  0.183335777593E+00  0.204010247030E+00  0.124055219367E+00  0.282817168378E+00
  0.621655389292E-01  0.542810042406E-01  0.543033775496E-01 -0.933606565643E-02  0.875028311308E-01  0.841546445997E-02  0.246097484550E-01
 -0.606601717798E-01 -0.606601717798E-01 -0.606601717798E-01 -0.606601717798E-01 -0.142342608988E-01 -0.738774387262E-02  0.855770558088E-01
 -0.606601717798E-01 -0.606601717798E-01  0.706690069285E-02 -0.606601717798E-01  0.701955735653E-01  0.785571592891E-02  0.598517106402E-01
 -0.606601717798E-01  0.192968367686E+00  0.197982061497E+00  0.140157889615E+00  0.140002298174E+00  0.120661104362E+00  0.229243368119E+00
 -0.606601717798E-01 -0.606601717798E-01 -0.606601717798E-01 -0.804534843603E-02 -0.606601717798E-01 -0.709060857471E-02  0.279827094655E-01
 -0.606601717798E-01  0.719526294201E-04  0.320276967533E+00  0.348809312179E+00  0.271924708854E+00  0.395049423827E+00  0.895825505612E-01
  0.958145260190E-01  0.736006248005E+00  0.954161204125E+00  0.994410166278E+00  0.823992153617E+00  0.575518498020E+00  0.950695735780E+00
  0.801492083015E+00  0.116286067186E+01  0.901143758587E+00  0.439841287219E+00  0.436450251217E+00  0.317194573307E+00  0.569494750318E+00
  0.588866841274E+00  0.476338212820E+00  0.569683926250E+00  0.590598012321E+00  0.758587004702E+00  0.908553959246E+00  0.703411023817E+00
  0.667343803224E+00 -0.606601717798E-01 -0.606601717798E-01  0.561399296647E-02  0.125092387152E-01 -0.101164376059E+00 -0.652524815705E-01
 -0.606601717798E-01 -0.140383188490E+00 -0.134196647688E+00 -0.171490389420E+00 -0.169555709897E+00 -0.118650455774E+00  0.906129398910E-01
  0.467778259398E-01 -0.567049459926E-01 -0.205802431015E+00 -0.301602008275E+00 -0.299050840840E+00 -0.214775823518E+00 -0.166980955616E+00
  0.141078232962E+00  0.160115486033E+00  0.269766025602E+00  0.215336577022E+00  0.103800422982E+00  0.132631772773E+00 -0.295393249153E+00
 -0.376575636987E+00 -0.440238638158E+00 -0.195324183506E+00 -0.260345244493E+00 -0.260425999218E+00 -0.213593432168E+00  0.271005497660E+00
  0.128800341058E+00  0.397936802087E+00 -0.270321479440E+00 -0.160361327755E+00  0.605979224420E-02 -0.215541996755E+00 -0.307799763059E+00
 -0.328451274830E-01 -0.939207431668E-01 -0.159728144792E+00 -0.496006401312E-01  0.324217323108E+00  0.546340297194E+00  0.461362591050E+00
  0.235382912541E+00  0.239122642545E+00  0.144333697712E+00  0.182520726020E+00  0.588040736769E-01  0.129345619082E+00  0.248275914534E+00
  0.241066465066E-01  0.328491590257E+00  0.323655255182E+00  0.402932095071E+00  0.111547030991E+00 -0.133601958942E-01 -0.667030675830E-01
  0.110724501393E+01  0.114555361848E+01  0.104629756046E+01  0.122084091549E+01  0.601684582755E+00  0.532239713302E+00  0.718142109789E+00
  0.693691367521E+00  0.288479442602E-01  0.145359428150E+00  0.115135686726E+00  0.226556310252E-01  0.189483076599E+00  0.604480267233E-02
  0.117518581954E+00  0.226314728227E+00  0.151190542415E+00  0.818641097763E-01  0.117694015496E+00  0.220394238474E+00  0.930848361954E-01
  0.528675818428E-01  0.110082408822E+00 -0.117199729879E-02  0.339220001630E+00  0.305288796139E+00  0.310915616416E+00  0.121202736921E-01
 -0.606601717798E-01 -0.606601717798E-01  0.500111479429E+00  0.514452356665E+00  0.426526467795E+00  0.773276899315E+00  0.418763392212E+00
  0.332722942864E+00  0.469271190607E+00  0.513953917431E+00  0.382450133593E+00  0.522076174051E+00  0.393067864214E+00  0.103048898832E+01
  0.872907726334E+00  0.938880197946E+00  0.107282636738E+01  0.457897841033E+00  0.588778410570E+00  0.530911502764E+00  0.722049020859E+00
  0.665956803381E+00  0.886683281373E+00  0.582461966098E+00  0.637150646199E+00  0.107827301353E+01  0.552144889051E+00  0.674181804861E+00
  0.746991497845E+00  0.850079948461E+00  0.824002093855E+00  0.919432709489E+00  0.284591661008E+00 -0.606601717798E-01  0.119546640931E+00
  0.186573052217E+00  0.681913177042E-01  0.113315840017E+00  0.561088703552E-01  0.906022560732E-01  0.154949964352E-01  0.279154867862E+00
  0.171336925247E+00  0.215812042771E+00  0.211669027353E+00  0.133899669545E+00  0.122436160243E+00  0.510567681991E-01  0.297770486112E+00
 -0.851312587979E-02 -0.606601717798E-01  0.516586845849E-01 -0.606601717798E-01 -0.606601717798E-01 -0.606601717798E-01 -0.606601717798E-01
 -0.757720439719E-02 -0.808547641727E-02  0.840906315556E-02 -0.606601717798E-01 -0.606601717798E-01 -0.606601717798E-01 -0.396389106917E-02
  0.102177367779E+00  0.657778544430E-01  0.748152809179E-02  0.128755317891E+00  0.233420380725E+00  0.152014579766E+00  0.204404434116E+00
  0.128650792727E+00  0.643114564305E-01  0.517969308336E-01 -0.606601717798E-01 -0.606601717798E-01 -0.606601717798E-01 -0.606601717798E-01
  0.479650219629E-03  0.662466083123E-02 -0.606601717798E-01  0.288124354882E+00  0.305268386120E+00  0.203788728476E+00  0.460905597239E+00
  0.409092717355E+00  0.597546589429E-01  0.864671965609E+00  0.111971625511E+01  0.120552638794E+01  0.944740335686E+00  0.910319026444E+00
  0.789371664185E+00  0.533703009625E+00  0.994140434826E+00  0.771191897914E+00  0.428034002183E+00  0.473329104620E+00  0.495546266278E+00
  0.309008945502E+00  0.562894518087E+00  0.607077476157E+00  0.691198423177E+00  0.747011490760E+00  0.603562668358E+00  0.613294597627E+00
  0.580678306229E+00 -0.606601717798E-01 -0.606601717798E-01 -0.129745544079E-02 -0.140303416392E+00 -0.101090420308E+00 -0.126789279286E+00
 -0.178375457422E+00 -0.174771517181E+00 -0.188136232334E+00 -0.236240411460E+00 -0.113107060380E+00  0.135893599362E+00  0.454550097040E-01
  0.515664043982E-01 -0.386294147664E-01 -0.224761007812E-01 -0.384909162563E+00 -0.335000581248E+00 -0.333449476937E+00 -0.388387161084E+00
 -0.273984521562E+00 -0.253829240985E+00 -0.163537559020E+00  0.747047553261E-01  0.101102573331E+00  0.176907929288E+00  0.243895158294E+00
  0.232407319515E+00 -0.319698447144E+00 -0.504844522654E+00 -0.433041017945E+00 -0.543046252851E+00 -0.422529825697E+00 -0.388659299391E+00
 -0.241252178689E+00 -0.267745730692E+00 -0.283613793781E+00 -0.208245256454E+00 -0.213568285057E+00 -0.280318758918E+00 -0.169247924673E+00
  0.192664706124E+00  0.306751666824E+00  0.599762859175E-01  0.323850613798E+00  0.453708060942E+00 -0.604790607399E-01 -0.177879827667E+00
 -0.328852563431E+00 -0.263312600812E+00 -0.177269431022E+00 -0.403759902167E+00 -0.251717662069E-01 -0.393134370509E-01 -0.121801119087E+00
 -0.541227755654E-01  0.560979996330E+00  0.366075668862E+00  0.745541293597E-01  0.217746281588E+00  0.165911443085E+00  0.391696759963E-01
 -0.343801513161E-01  0.564964769700E-01  0.185011484146E+00  0.365898794313E+00  0.360078863700E+00  0.479550687784E+00  0.102017442312E+00
  0.125844135564E+01  0.128097425412E+01  0.698095565432E+00  0.786819763440E+00  0.827134522052E+00 -0.606601717798E-01 -0.606601717798E-01
  0.977704800675E-01  0.110551531642E-01  0.381391745225E-01 -0.606601717798E-01 -0.606601717798E-01  0.192284976507E+00  0.197769045559E+00
  0.808117057485E-01  0.242374503025E+00  0.137823180138E+00  0.201293256089E+00  0.172116338163E+00  0.831989354207E-01  0.979419833502E-02
  0.331193262377E-02  0.309015122627E-01  0.876096550236E-01  0.255826629819E+00 -0.780455998236E-03  0.598042120644E-02  0.133502981402E-02
  0.439725415329E-01  0.103527364323E+00  0.760405650841E-01 -0.606601717798E-01 -0.606601717798E-01 -0.606601717798E-01  0.407177560402E+00
  0.317969826100E+00  0.364714459235E+00  0.321160894631E+00 -0.606601717798E-01  0.531567396836E+00  0.521646371617E+00  0.452434790044E+00
  0.497407941996E+00  0.419006490478E+00  0.514949076498E+00  0.400341351272E+00  0.299740452595E+00  0.528191629750E+00  0.645267097838E+00
  0.419980176438E+00  0.321379447165E+00  0.414570227350E+00  0.301469399443E+00  0.987353741111E+00  0.107442207948E+01  0.131624531281E+01
  0.138255105021E+01  0.528127127025E+00  0.649071093954E+00  0.630716212799E+00  0.820855881236E+00  0.711019446765E+00  0.110939311046E+01
  0.600928249055E+00  0.619192619623E+00  0.790743441407E+00  0.666684246107E+00  0.759869110472E+00  0.914096822812E+00  0.935309741213E+00
  0.829732283059E+00  0.899991298578E+00  0.219824620267E+00  0.198659254310E+00  0.908588909835E-01  0.160475796868E-01  0.147846468013E+00
 -0.178274533763E-01  0.543883234278E-01 -0.845027961962E-02  0.360044558134E-02  0.321145867400E-01  0.130738294008E+00 -0.511332752605E-02
 -0.606601717798E-01 -0.606601717798E-01 -0.606601717798E-01 -0.606601717798E-01  0.208856483093E+00  0.169780133685E+00  0.210502291038E+00
  0.148187952908E+00  0.952212446930E-01  0.505557949229E-01  0.674294602805E-01  0.282034763717E+00 -0.606601717798E-01 -0.606601717798E-01
 -0.606601717798E-01 -0.606601717798E-01 -0.606601717798E-01 -0.606601717798E-01 -0.606601717798E-01 -0.154508303533E-02 -0.606601717798E-01
 -0.606601717798E-01 -0.370840044844E-02  0.650507036083E-01  0.134135045171E+00  0.188852970720E+00  0.100100285603E+00  0.109315089960E+00
  0.427405244842E-02 -0.606601717798E-01 -0.606601717798E-01 -0.606601717798E-01  0.728326560383E-02 -0.606601717798E-01  0.261817513591E+00
  0.247266061346E+00  0.170596929252E+00  0.248590602246E+00  0.353576314031E+00  0.371489767119E+00  0.571881897127E+00  0.458261019547E+00
  0.182210955856E-01 -0.424186793329E-01  0.112698341880E+01  0.111592611726E+01  0.104279498314E+01  0.994785676742E+00  0.852390399993E+00
  0.727987254325E+00  0.852547453643E+00  0.634805699787E+00  0.613998601758E+00  0.397238249258E+00  0.473101455711E+00  0.532352035362E+00
  0.414505922816E+00  0.486901049422E+00  0.408127688548E+00  0.206459872795E+00  0.333861092951E+00  0.263329005209E+00  0.566472049971E+00
  0.533432794381E+00  0.540397361943E+00 -0.100964248501E+00 -0.606601717798E-01 -0.178243218179E+00 -0.140142360578E+00 -0.986491402472E-01
 -0.155313303610E+00 -0.160558396649E+00 -0.227722909490E+00 -0.177958766257E+00 -0.239007298430E+00 -0.311738075824E+00 -0.106090016591E+00
 -0.160209138728E-01  0.167456564467E-01 -0.363780232448E+00 -0.401582783797E+00 -0.497510819955E+00 -0.313018499628E+00 -0.232650822068E+00
 -0.122175193127E+00 -0.222441075053E+00  0.475482310986E-01  0.103691049466E+00  0.230638593329E+00  0.147903712592E+00 -0.476658346948E+00
 -0.373703531727E+00 -0.428065964227E+00 -0.214652264856E+00 -0.331570196562E+00 -0.248647269147E+00 -0.240561850665E+00 -0.214208643903E+00
 -0.139879062926E+00 -0.177528221323E+00 -0.243712035398E+00 -0.139566725719E+00 -0.211676490435E+00 -0.291653863821E+00 -0.303800821414E+00
 -0.100804537936E+00  0.276626568628E+00  0.101157328953E+00  0.280040897654E+00  0.431130530893E+00 -0.250708758235E+00 -0.529799692170E-01
 -0.214787552846E+00 -0.108360023011E+00 -0.474219478767E+00 -0.474775510705E+00 -0.348096427621E+00 -0.306924389684E+00 -0.328899702055E+00
 -0.493480978398E-01 -0.191649841218E+00  0.140174482606E+00  0.236581707123E-01  0.190897640965E+00  0.284446281858E+00  0.181821629043E+00
  0.815312490351E-01  0.180876329229E+00  0.345203122377E-01 -0.696328471861E-01  0.369191205070E+00  0.289623463376E+00  0.653524866660E+00
  0.757623489927E+00 -0.606601717798E-01  0.276770640856E-01 -0.606601717798E-01  0.143276284820E-02  0.223462229662E+00  0.752531527248E-01
  0.142594097619E+00  0.143814244988E+00  0.124549601498E-01 -0.606601717798E-01 -0.606601717798E-01 -0.606601717798E-01 -0.606601717798E-01
  0.931457350021E-02  0.798149336161E-03 -0.606601717798E-01 -0.606601717798E-01 -0.111569003496E-01 -0.606601717798E-01 -0.606601717798E-01
 -0.606601717798E-01  0.703490821305E-02 -0.606601717798E-01  0.129907016747E-02  0.640003196708E-01 -0.705861343326E-02  0.825696061026E-01
  0.609577514997E-01  0.488822622343E-01  0.397617167700E+00  0.299273197663E+00  0.248947852975E+00  0.327462970593E+00  0.412533151989E+00
  0.605096705226E+00  0.535827353708E+00  0.452911054344E+00  0.455641604757E+00  0.560279264353E+00  0.579447615201E+00  0.516799003846E+00
  0.347526973266E+00  0.205781868015E+00  0.466453414047E+00  0.621072287872E+00  0.666566640898E+00  0.279436703064E+00  0.377557825822E+00
  0.243921793646E+00  0.206071607810E+00  0.294552262915E+00  0.391885690328E+00  0.500061502872E+00  0.110192168572E+01  0.101392077886E+01
  0.848190262360E+00  0.129575807531E+01  0.110463042823E+01  0.719063881353E+00  0.791187386051E+00  0.827923221355E+00  0.709419860064E+00
  0.105096058079E+01  0.674089409874E+00  0.529021848142E+00  0.705679440934E+00  0.897717769256E+00  0.700138339272E+00  0.903914556795E+00
  0.815989739136E+00  0.941221868618E+00  0.147735821863E+00  0.118933373783E+00  0.127157164189E+00  0.177232219774E+00 -0.422904210244E-03
  0.648594496921E-01 -0.606601717798E-01 -0.606601717798E-01 -0.606601717798E-01  0.174639198047E+00  0.143132438283E+00  0.717395047732E-01
 -0.606601717798E-01 -0.606601717798E-01 -0.692348259045E-02 -0.606601717798E-01 -0.606601717798E-01 -0.180627300197E-01 -0.606601717798E-01
 -0.606601717798E-01 -0.606601717798E-01 -0.623331571567E-05  0.194790364548E+00  0.114520427145E+00  0.606174869753E-01  0.481543251631E-02
  0.498988746532E-01 -0.549548730022E-02 -0.606601717798E-01 -0.307206276134E-02 -0.606601717798E-01 -0.606601717798E-01 -0.145813584360E-01