TITLE="fun3d_case_title"
VARIABLES="Iteration" "R_1" "R_2" "R_3" "R_4" "R_5" "C_L" "C_D" "C_M_x" "C_M_y" "C_M_z" "Wall Time" "C_x" "C_y" "C_z" "C_Lp" "C_Dp" "C_Lv" "C_Dv" "C_M_xp" "C_M_yp" "C_M_zp" "C_M_xv" "C_M_yv" "C_M_zv" "C_xp" "C_yp" "C_zp" "C_xv" "C_yv" "C_zv"
ZONE  I=1 F=POINT
1  0.1753992722E-01  0.3544724809E+00  0.1055044708E-15  0.2046547823E+00  0.4819648415E+01 -0.2450609580E-04  0.5192772201E-04  0.1303066760E-10 -0.1973551850E-05 -0.6862282589E-09  0.6850000000E+00  0.5722377431E-04  0.3955902471E-07  0.4740959496E-05 -0.2450609580E-04  0.5192772201E-04  0.0000000000E+00  0.0000000000E+00  0.1303066760E-10 -0.1973551850E-05 -0.6862282589E-09  0.0000000000E+00  0.0000000000E+00  0.0000000000E+00  0.5722377431E-04  0.3955902471E-07  0.4740959496E-05  0.0000000000E+00  0.0000000000E+00  0.0000000000E+00
