title="tecplot geometry and solution file"
variables=x y z rho u v w p
zone t="processor 10", solutiontime= 0.1800000E+04, strandid=0, n=3052, e=13874, f=feblock, et=tetrahedron
 -0.157079482271E+01 -0.395201363220E-01  0.134010466656E+01  0.168208110668E+01  0.317763280874E+01  0.157132856903E+01  0.449688709617E+01
  0.342644372916E+01  0.508192370897E+01  0.308686499417E+01  0.378990015276E+01  0.490019482308E+01  0.592996791102E+01  0.476691023349E+01
  0.378042569103E+01  0.600725632202E+01  0.694168283907E+01  0.564508481740E+01  0.662802151618E+01  0.611019233661E+01  0.860848630193E+01
  0.650648374850E+01  0.906986503738E+01  0.602236811580E+01  0.570316516989E+01  0.703616841198E+01  0.783036958439E+01  0.559046984593E+01
  0.802347483155E+01  0.545885692628E+01  0.778419172508E+01  0.697802211460E+01  0.161363549717E+01  0.361651270658E+01  0.298573840642E+01
  0.329549787201E+01  0.496096278848E+01  0.444543422768E+01  0.599712989093E+01  0.618643878582E+01  0.899399075261E+01  0.952036406901E+01
  0.103978117742E+02  0.827833115295E+01  0.985867541792E+01  0.702316485176E+01  0.590362529279E+01  0.107750116617E+02  0.736853130136E+01
  0.576676173759E+01  0.915852068337E+01  0.117065131420E+02  0.122696454951E+02  0.113662711778E+02  0.987042427838E+01  0.975847883172E+01
  0.863467455621E+01  0.840332731102E+01  0.954192142237E+01  0.348899679168E+01  0.678769685502E+01  0.122009603276E+02  0.532452044636E+01
  0.646726113186E+01  0.352880691612E+01  0.738722215222E+01  0.814168735213E+01  0.481476211009E+01  0.927625561835E+01  0.987554446719E+01
  0.112315368289E+02  0.773239161635E+01  0.939697821599E+01  0.627696453025E+01  0.223306450228E+01  0.156289462958E+01  0.431875183127E+01
  0.422972743928E+01  0.261779855294E+01  0.392354030302E+01  0.297890401155E+01  0.570838777373E+01  0.681002639212E+01  0.568621774893E+01
  0.769037926924E+01  0.672000785050E+01  0.858758585051E+01  0.111416967395E+02  0.126638154664E+02  0.794296142713E+01  0.105855174056E+02
  0.901973553735E+01  0.453373409480E+01  0.634788150902E+01  0.357345775784E+01  0.623392778538E+01  0.455517541184E+01  0.673995514486E+01
  0.430176092229E+01  0.843210592378E+01  0.622526000452E+01  0.924398650036E+01  0.107107516712E+02  0.487970432380E+01  0.784576476238E+01
  0.871272100082E+01  0.308523684378E+01  0.321778294689E+01  0.528038610585E+01  0.136807444337E+02  0.123841201077E+02  0.142569412119E+02
  0.145666583148E+02  0.133652199881E+02  0.113340979399E+02  0.983830937472E+01  0.125687480669E+02  0.137759025613E+02  0.243482085908E+01
  0.863206602189E+01  0.144043076824E+02  0.483505270536E+01  0.838880865133E+01  0.566043132459E+01  0.760586797810E+01  0.560946947774E+01
  0.760355303484E+01  0.203395048961E+01  0.341567523286E+01  0.205326674270E+01  0.277221129076E+01  0.352590099091E+01  0.867399259785E+01
  0.111248185693E+02  0.917137881494E+01  0.454594812387E+01  0.527940833446E+01  0.620225429181E+01  0.298687928795E+01  0.100605143885E+02
  0.110800086391E+02  0.130998769624E+02  0.928633329359E+01  0.125978647978E+02  0.162360873704E+02  0.143050047732E+02  0.732585291852E+01
  0.674593396303E+01  0.113352473140E+02  0.108994866926E+02  0.521033916536E+01  0.253296833644E+00  0.191427044706E+01  0.272994740736E+01
  0.281715546915E+01  0.827920012658E+00  0.155206796311E+01  0.148560352641E+01  0.431021572060E+01  0.497352181181E+01  0.591272825699E+01
  0.355566503686E+01  0.357138152021E+01  0.362276453326E+01  0.703547232460E+01  0.380743375309E+01  0.843760188579E+01  0.692695032818E+01
  0.951892363428E+01  0.967041462125E+01  0.751918602785E+01  0.126285617265E+02  0.841386609781E+01  0.109596634263E+02  0.105050593377E+02
  0.114466528488E+02  0.131033627867E+02  0.143354292016E+02  0.272378753318E+01  0.280860023080E+01  0.416768673549E+01  0.518488658470E+01
  0.618485556911E+01  0.163490315875E+01  0.728164383959E+01  0.510335138959E+01  0.296211293901E+01  0.370810696189E+01  0.399966545906E+01
  0.229804088644E+01  0.595758383175E+01  0.408506724435E+01  0.659844815253E+01  0.110147953905E+02  0.137196855704E+02  0.984587893841E+01
  0.115706546956E+02  0.150769548922E+02  0.258377977259E+01  0.272930806491E+01  0.353680823300E+01  0.995300308857E+01  0.722917151029E+01
  0.772049036037E+01  0.953815029654E+01  0.939419278351E+01  0.661169752398E+01  0.112876948432E+02  0.876331144571E+01  0.684145335172E+01
  0.117907555304E+01  0.535445612974E+00  0.321974191494E+01  0.653410934945E+00  0.466597273836E+01  0.460061967904E+01  0.158005959686E+02
  0.161889031320E+02  0.140169115925E+02  0.149286777436E+02  0.137744510758E+02  0.158517390061E+02  0.226373392137E-01  0.526178400613E+00
  0.976168167474E+01  0.451165906737E+01  0.596858704195E+01  0.667499760692E+01  0.480739387001E+01  0.843601687761E+01  0.418941283828E+01
  0.590346621800E+01  0.506352821862E+01  0.713306448355E+01  0.927023011145E+01  0.896691324520E+01  0.327290259713E+00  0.128147241695E+01
  0.230086724441E+01  0.331076478111E+01  0.207423903531E+01  0.103837455214E+01  0.130922669596E+01  0.111841829558E+01  0.298927580023E+01
  0.103712067787E+02  0.125786831171E+02  0.938224269679E+01  0.454142589729E+01  0.482307812831E+01  0.649557709542E+01  0.242109616504E+01
  0.183391407736E+01  0.274388549256E+01  0.111156940363E+02  0.129943357694E+02  0.104944358860E+02  0.125181481797E+02  0.142789851478E+02
  0.168789434512E+02  0.857935281165E+01  0.158568938116E+02  0.144167283418E+02  0.115218953889E+02  0.128329480176E+02  0.175350592552E+02
  0.177079445864E+02  0.183844652270E+02  0.157202997357E+02  0.156644109467E+02  0.625530833654E+01  0.702026709617E+01  0.505546983176E+01
  0.500630616360E+01  0.122106522119E+02  0.103612742327E+02  0.478548542176E+01  0.205085707387E+01  0.271022663713E+01 -0.332794471978E+00
  0.473502020887E+00  0.109657039445E+01  0.526223327004E+00  0.331692152955E+01  0.564214979424E+01  0.313754666136E+01  0.232635710830E+01
  0.456007134309E+01  0.287037450993E+01  0.170666031547E+01  0.339138652089E+01  0.491963534129E+01  0.783562521710E+01  0.172788369684E+01
  0.104375406450E+02  0.670283036017E+01  0.817062968347E+01  0.101468898553E+02  0.520745062435E+01  0.760568692570E+01  0.108613120574E+02
  0.880432916557E+01  0.925104550492E+01  0.554108276383E+01  0.136008428224E+02  0.114130884610E+02  0.127056963456E+02  0.135333781186E+02
  0.174363318801E+02  0.154084875009E+02  0.186965177419E+02  0.164441382794E+02  0.295378330383E+01  0.264357486192E+01  0.462855555283E+01
  0.401218360274E+01  0.501409471627E+01  0.565641057501E+01  0.627221141362E+01  0.620611398722E+01 -0.161021484180E-01  0.777410824860E+01
  0.466541797830E+01  0.358685172693E+01  0.244155754171E+01  0.131265378716E+01  0.201274782111E+01  0.341474864256E+01  0.241665565942E+01
  0.265747679577E+01  0.433187391401E+01  0.191257750036E+01  0.372499128268E+01  0.873342677368E+01  0.121989858332E+02  0.155542233843E+02
  0.148477198751E+02  0.129171956824E+02  0.113708563733E+02  0.168010011680E+02  0.169930511733E+02  0.130755852239E+01  0.319142204801E+01
  0.250947156775E+01  0.109307219239E+02  0.770196956545E+01  0.653054641709E+01  0.790970605713E+01  0.959472215160E+01  0.913090167240E+01
  0.826803579578E+01  0.986863207307E+01  0.107572574452E+02  0.813820786281E+01  0.123884811552E+02  0.513057317468E+01  0.564947721016E+01
  0.800545342879E+01  0.475061534778E+01  0.613681686277E+01  0.144312058296E+01  0.219574076776E+01  0.821482454780E+00  0.117601776448E+01
  0.322788628912E+01  0.167866810979E+02  0.148887557464E+02  0.160786065260E+02 -0.168404467643E+01  0.133046161368E+01  0.425472403579E+01
  0.566301577736E+01  0.712600230860E+01  0.673607681181E+01  0.764019196384E+01  0.550785997504E+01  0.355607044673E+01  0.420980020934E+01
  0.803356089169E+01  0.315231613499E+01  0.302702074028E+01  0.417797819548E+01  0.352690154454E+01  0.654151368362E+01  0.530398027961E+01
  0.650774033884E+01  0.500167639143E+01  0.625543371221E+01  0.419319897230E+01  0.466680603986E+01  0.521771732363E+01  0.805450267368E+01
  0.998368083800E+01  0.103395291688E+02  0.862395264331E+01  0.100180582247E+02  0.115185887913E+02  0.103198704970E+02  0.815411929148E+01
 -0.107773785988E+01 -0.169992843741E+01  0.358028941843E-01  0.160096345374E+01  0.710280752812E+00  0.198172653204E+01  0.230882775862E+01
  0.289823422129E+01  0.159250833077E+01  0.118102115509E+01 -0.894192485988E-01  0.514866541199E-01 -0.518676526004E+00 -0.417005637205E+00
  0.635412819577E+00  0.688467067667E+00  0.141344423660E+01  0.324597145481E+01  0.290812209083E+01  0.174328155684E+01  0.103616554309E+02
  0.356256351384E+01  0.604287646513E+01  0.452404555327E+01  0.130770722261E+01  0.101478246094E+01  0.208055839315E+01  0.209513012952E+01
  0.121608879675E+02  0.142623518309E+02  0.129624356087E+02  0.143957578447E+02  0.154632634088E+02  0.120252904450E+02  0.175388029412E+02
  0.162683019513E+02  0.652232254971E+01  0.146938804532E+02  0.127238488294E+02  0.134027525655E+02  0.116800243962E+02  0.187824218678E+02
  0.187819435874E+02  0.194122491951E+02  0.166146522000E+02  0.176969265107E+02  0.164095772993E+02  0.582935469657E+01  0.357131054271E+01
  0.469237611423E+01  0.461292969690E+01  0.109036515434E+02  0.940583443989E+01  0.295860487593E+01  0.588658584954E+01  0.443012962954E+01
  0.144527240209E+01  0.161156677626E+01 -0.649642874745E+00 -0.676207973312E+00  0.135322777130E+00  0.186232173861E+00 -0.147996889296E+00
  0.195306936943E+00  0.802180782053E+00 -0.256848523679E+00  0.296501377785E+00  0.601822564754E+01  0.318536193811E+01  0.472342511532E+01
  0.217223974543E+01  0.265245634952E+01  0.298931368764E+01  0.863765864116E+01  0.391137191606E-01  0.683184228369E+01  0.894571520930E+01
  0.674402179127E+01  0.903548924804E+01  0.924291375667E+01  0.659603720311E+01  0.710615677634E+01  0.115223314732E+02  0.909446449473E+01
  0.724743231623E+01  0.105415800047E+02  0.229759122012E+01  0.396188608163E+01  0.140877877675E+02  0.119519689747E+02  0.147048717424E+02
  0.159727994597E+02  0.135697937941E+02  0.142796404231E+02  0.181761658223E+02  0.195482195131E+02  0.191822793349E+02  0.168839691024E+02
  0.142139200310E+01  0.308293033573E+01  0.118505880547E+01  0.223137276151E+01  0.455922061195E+01  0.364512681834E+01  0.471764328866E+01
  0.642919596177E+01  0.485634967841E+01  0.627524257923E+01 -0.135941040373E+01 -0.150967713330E+01  0.794332140785E+01  0.360950261531E+01
  0.448548592817E+00  0.100719622236E+01  0.225065247895E+01  0.145920109235E+01  0.156214911396E+01  0.227037555255E+01  0.155844018221E+01
  0.143608173477E+01  0.177626820972E+01  0.223544816164E+01  0.168158075125E+01  0.241120678700E+01  0.367878894848E+01  0.888588500768E+01
  0.131157161120E+02  0.149426902701E+02  0.164145659627E+02  0.136855302844E+02  0.112683688838E+02  0.182834043494E+02  0.310747663121E+01
  0.166346341483E+01  0.114872091345E+02  0.956050537907E+01  0.110506792621E+02  0.605736758963E+01  0.480055685378E+01  0.705669318622E+01
  0.963611283618E+01  0.747080494742E+01  0.772241123448E+01  0.817558882587E+01  0.932815150800E+01  0.885183347871E+01  0.140914816342E+02
  0.115736917757E+02  0.127164115259E+02  0.929937444070E+01  0.705863432045E+01  0.156392040502E+02  0.133175506611E+02  0.436505302037E+01
  0.298286718224E+01  0.505486587689E+01  0.625035814780E+01  0.312599424459E+01  0.910829359503E+01  0.599820047291E+01  0.529163066489E+01
  0.686075257732E+01  0.698051885215E+01  0.367390764556E+01  0.518560815560E+01  0.180502708818E+02  0.173836258972E+02  0.191744591072E+02
  0.156339817425E+01  0.427896611250E+01  0.419783085142E+01  0.570940823307E+01  0.688915902071E+01  0.582572041344E+01  0.670936392422E+01
  0.505670035919E+01  0.704605153176E+01  0.423238274237E+01  0.304059607690E+01  0.302068361818E+01  0.265557679173E+01  0.316161018824E+01
  0.209939260148E+01  0.354452624828E+01  0.427293018399E+01  0.272906352091E+01  0.239985120745E+01  0.351333526233E+01  0.305864231456E+01
  0.587788820720E+01  0.683959454096E+01  0.447368170421E+01  0.346942826108E+01  0.539346968779E+01  0.395322529023E+01  0.402589649917E+01
  0.436016713347E+01  0.460748670557E+01  0.511812773738E+01  0.896422589838E+01  0.824511727226E+01  0.112528860112E+02  0.931382271030E+01
  0.965610767495E+01  0.105914178386E+02  0.115059804101E+02  0.121204885171E+02  0.863556031668E+01  0.729052205345E+01  0.988048483558E+01
  0.752419908389E+01 -0.217864071913E+01  0.117396965360E+01  0.794368392776E+00  0.929079809917E+00  0.196836902293E+00  0.172125856407E+01
  0.133135280732E+01  0.136027487995E+01  0.118042004710E+01  0.109604124076E+01  0.185280166478E+01  0.186879039247E+01  0.218724414783E+01
  0.146234359023E+01  0.204571068452E+01  0.204836719531E+01  0.274213808032E+01  0.199969984826E+01  0.618109654355E+00 -0.461705179231E+00
 -0.956057003855E-01 -0.477466504066E-01  0.673874657498E+00  0.157999390570E+00  0.800965105971E+00  0.942718105107E+00  0.230224706752E+01
  0.315777835425E+01  0.393159691539E+01  0.125806742955E+01  0.194773781996E+01  0.149052624646E+02  0.142298814431E+02  0.169660431275E+02
  0.128272770116E+02  0.161115401508E+02  0.162456895682E+02  0.144349699120E+02  0.186833484247E+02  0.174085301716E+02  0.181248270139E+02
  0.139188938113E+02  0.102816412921E+02  0.128082927832E+02  0.144923652548E+02  0.157847313617E+02  0.132661446260E+02  0.104070335004E+02
  0.125006689730E+02  0.138609933823E+02  0.110728849224E+02  0.856637389190E+01  0.195458308192E+02  0.199343677524E+02  0.168942942127E+02
  0.446566175236E+01  0.333881067402E+01  0.606021477094E+01  0.439978198724E+01  0.443598035394E+01  0.479627808198E+01  0.683529878424E+01
  0.297838593604E+01  0.577407205975E+01  0.536653783337E+01  0.373072609365E+01 -0.510135017223E+00 -0.316314982346E-01 -0.795049643819E+00
 -0.597471575238E+00 -0.373092258776E+00 -0.340899116218E+00 -0.424701199921E+00  0.170561365024E+00  0.557455969149E-01  0.253316885221E+00
  0.420825475567E+00  0.793937082754E+00  0.913126833484E+00 -0.177973061217E+00  0.545849612474E+00  0.390736336650E+00  0.822404652548E-01
  0.700932988096E+01  0.527776137747E+01  0.423598372629E+01  0.263657789888E+01  0.547174075517E+01  0.749830186448E+01  0.846245814146E+01
  0.849917446401E+01  0.921057442749E+01  0.467582173589E+01  0.675883025931E+01  0.748983836135E+01  0.109747689984E+02  0.144058977739E+02
  0.121375946534E+02  0.117022956318E+02  0.427745491678E+01  0.137496826895E+02  0.164930586018E+02  0.127620676515E+02  0.142828153803E+02
  0.198068831122E+02  0.215790609595E+00  0.959701802532E+00  0.602942449130E+00  0.232304562518E+01 -0.244162108674E+00 -0.288233303372E+00
  0.712847124052E+00  0.150644255576E+01  0.258886709747E+01  0.156556218905E+01  0.313273545183E+01  0.362704222563E+01  0.432497714507E+01
  0.510805532291E+01  0.502805609248E+01  0.610132651728E+01  0.604465519156E+01  0.237335249137E+01  0.585613358737E+00  0.445375372028E+00
 -0.309979739775E+00  0.935552317562E+00  0.689060724858E-01 -0.477092764699E+00  0.195145245284E+01  0.140098130041E+01  0.127086847119E+01
  0.128965082144E+01  0.877153560475E+00  0.807426012541E+00  0.792217926450E+00  0.124912660054E+01  0.166204171819E+01  0.153637907103E+01
  0.165631780607E+01  0.202765760330E+01  0.984455415860E+00  0.907632873257E+00  0.125334419973E+01  0.109210229423E+01  0.132225887799E+01
  0.167188896108E+01  0.150110454493E+01  0.218842820970E+01  0.172721402677E+01  0.286386752743E+01  0.829747405404E+01  0.138959915800E+02
  0.158074884270E+02  0.124875418532E+02  0.988769122203E+01 -0.499657460215E-01  0.984186884946E+00  0.111777672770E+02  0.948701101882E+01
  0.116526051942E+02  0.104470822964E+02  0.541851744292E+01  0.562541606143E+01  0.365719471957E+01  0.645942107755E+01  0.843037101874E+01
  0.947320832345E+01  0.747537624805E+01  0.792414345287E+01  0.678024334544E+01  0.759064964463E+01  0.790276048141E+01  0.980309198430E+01
  0.162499924574E+02  0.146713040682E+02  0.130928895080E+02  0.103207361212E+02  0.125308358828E+02  0.103269064573E+02  0.145031519615E+02
  0.122016938443E+02  0.805525019096E+01  0.707062769310E+01  0.186802199385E+02  0.161469545809E+02  0.126616815422E+02  0.151949203208E+01
  0.338436392792E+01  0.385024863315E+01  0.586339187201E+01  0.701611437579E+01  0.177983575803E+01  0.300672447671E+01  0.515142966086E+01
  0.976134569373E+01  0.476404432781E+01  0.635311931461E+01  0.490125440356E+01  0.579572464853E+01  0.327069041391E+01  0.195617520100E+01
  0.497762400691E+01  0.371968944330E+01  0.176969305240E+02  0.195454249325E+02  0.348515113128E+01  0.585109952680E+01  0.640248768126E+01
  0.578525438849E+01  0.403117211744E+01  0.473467438823E+01  0.359916601622E+01  0.428993606997E+01  0.653179527838E+01  0.253914151679E+01
  0.309400453896E+01  0.207872222252E+01  0.225961720861E+01  0.129406079428E+01  0.159458039572E+01  0.171474091561E+01  0.125804113037E+01
  0.342843109799E+01  0.286541790756E+01  0.211123397276E+01  0.257267358632E+01  0.176430950204E+01  0.169616923515E+01  0.172224740274E+01
  0.334841667349E+01  0.314474457267E+01  0.249934239640E+01  0.236861940081E+01  0.299613238681E+01  0.572293299046E+01  0.648945273482E+01
  0.385565787495E+01  0.376479046933E+01  0.263976309626E+01  0.196724888536E+01  0.475116566739E+01  0.405217830642E+01  0.495910647115E+01
  0.381574668649E+01  0.305179771558E+01  0.316833942410E+01  0.393115602794E+01  0.340521435764E+01  0.451840421681E+01  0.368470863753E+01
  0.830814679532E+01  0.116795049525E+02  0.107680718651E+02  0.914641059808E+01  0.105037496126E+02  0.134511123538E+02  0.108536271910E+02
  0.130835512967E+02  0.134480091693E+02  0.111071317260E+02  0.102057761691E+02  0.736133255614E+01  0.917134577441E+01  0.765682050377E+01
  0.581617676117E+01  0.714861784871E+01  0.593978390855E+01  0.408161128900E+00  0.483609870920E+00 -0.135485150950E+00  0.141573189902E+01
  0.939059553203E+00  0.800128190431E+00  0.980700787023E+00  0.659058029024E+00  0.109973975126E+01  0.146974204712E+01  0.142962747875E+01
  0.138526140678E+01  0.106082417779E+01  0.165433530250E+01  0.265830072105E+01  0.139048815022E+01  0.281275051056E+00 -0.784911721788E-01
 -0.485745123791E+00  0.326413269829E+00  0.196647205043E+00  0.646400618650E+00  0.852701017693E+00  0.253294812455E+01  0.169667780923E+02
  0.160460997027E+02  0.159980140939E+02  0.167573553327E+02  0.198067917415E+02  0.199342310244E+02  0.123018686405E+02  0.191806241748E+02
  0.183430491796E+02  0.152496006331E+02  0.167015346753E+02  0.171329339431E+02  0.844682914890E+01  0.149308211201E+02  0.130471275226E+02
  0.101630882374E+02  0.116203254474E+02  0.997622979152E+01  0.860439693215E+01  0.668682027740E+01  0.179999414774E+02  0.302481525140E+01
  0.602496227005E+01  0.403928253174E+01  0.466849954089E+01  0.282157256473E+01  0.259482321255E+01  0.475824843471E+01  0.669365864580E+01
  0.490087418582E+01  0.556451007734E+01 -0.179516587519E+00 -0.454627045661E+00  0.841740801788E+00  0.497946753612E+00  0.156573672803E+00
 -0.301896160127E+00  0.102560298256E+00  0.412724720594E+01  0.352422911868E+01  0.569702174704E+01  0.103339754719E+02  0.735398660702E+01
  0.929648549261E+01  0.403975706258E+01  0.157879645652E+02  0.134499514869E+02  0.140902981277E+02  0.117478587276E+02  0.119046169344E+02
  0.194137205649E+01  0.135757859175E+02  0.187814799775E+02  0.155793836544E+02  0.120200927875E+02 -0.330386147259E+00  0.201624515434E+00
  0.472413930116E+00  0.574155195880E+00  0.429608432898E+00  0.194912295414E+00 -0.370090115723E+00  0.107327227585E+01  0.303833422813E+00
  0.208734398091E+01  0.177654279898E+01  0.717228136976E+00  0.101110721416E+01  0.134875478253E+01  0.295163964224E+01  0.401041738411E+01
  0.398572755917E+01  0.503379602852E+01  0.464328012368E+01  0.560402246029E+01  0.532434473582E+01  0.198027796980E+01  0.173995626114E+01
  0.142844801230E+01 -0.115815620474E+01 -0.656575299834E+00 -0.265307353855E+00  0.266537769147E-02 -0.436057930891E+00 -0.151680167451E+00
 -0.100365510068E+01 -0.108878336327E+01  0.112913805894E+01  0.120623909407E+01  0.157874548790E+01  0.116809654470E+01  0.104751705563E+01
  0.799758854230E+00  0.733831573024E+00  0.870196039321E+00  0.694089234421E+00  0.858738959355E+00  0.474750093751E+00  0.100266997209E+01
  0.333706201832E+00  0.588919383246E+00  0.376118085098E+00  0.129125232885E+01  0.853862960983E+00  0.952844212916E+00  0.127583281057E+01
  0.110971167911E+01  0.161378361675E+01  0.162430814530E+01  0.641709503682E+00  0.827485378963E+00  0.836140375283E+00  0.128430419578E+01
  0.190959493470E+01  0.163131771110E+01  0.214296327010E+01  0.285592594168E+00  0.770059503016E+01  0.128948428822E+02  0.111372210826E+02
  0.917852192894E+01  0.296167443821E+00  0.942963048530E+01  0.106393460673E+02  0.860864436700E+01  0.104253297717E+02  0.109577542161E+02
  0.224260792807E+01  0.254947343741E+01  0.813720577175E+01  0.703032805927E+01  0.798443073985E+01  0.579520343333E+01  0.778809404978E+01
  0.621094562892E+01  0.527415672663E+01  0.607169883593E+01  0.796590525280E+01  0.643004757087E+01  0.146947793377E+02  0.162680902156E+02
  0.175385712947E+02  0.143241954069E+02  0.130178094858E+02  0.108340158429E+02  0.118172809280E+02  0.903180773706E+01  0.942096780631E+01
  0.600430783915E+01  0.135605158100E+02 -0.105856408940E+01  0.112979350729E+01  0.141759517406E+01  0.223867295334E+01  0.364250523623E+01
  0.326359958242E+01  0.621980911178E+01  0.410656690335E+01  0.722501026161E+01  0.129841051155E+01  0.222882029816E+01  0.345011376406E+01
  0.273366334737E+01  0.529128483182E+01  0.923896344631E+01  0.468382443759E+01  0.424125207046E+01  0.485277266326E+01  0.410416785810E+01
  0.452117799219E+01  0.108851067048E+01  0.986577005286E+00  0.304074793555E+01  0.194118971758E+02  0.444164670038E+01  0.344865277793E+01
  0.412337187102E+01  0.200523361370E+01  0.280415064154E+01  0.229540837063E+01  0.196270552188E+01  0.149637887039E+01  0.175305005924E+01
  0.169460363226E+01  0.193919593228E+01  0.772467114557E+00  0.843932418629E+00  0.106027247327E+01  0.922350456928E+00  0.989513709399E+00
  0.130904387004E+01  0.129254978290E+01  0.119255920352E+01  0.794169661391E+00  0.248759266262E+01  0.263241500407E+01  0.281279695474E+01
  0.186130179440E+01  0.202732453555E+01  0.255725555057E+01  0.132432455703E+01  0.128927403648E+01  0.136926166612E+01  0.124500259210E+01
  0.197173282901E+01  0.210687122682E+01  0.210557210951E+01  0.293653588299E+01  0.670950346175E+01  0.499986272638E+01  0.597723711598E+01
  0.404045713127E+01  0.285583765677E+01  0.285942617207E+01  0.383953599863E+01  0.304726941192E+01  0.161706146108E+01  0.251317003528E+01
  0.157281322689E+01  0.134795036987E+01  0.379888745961E+01  0.432309270608E+01  0.365029995248E+01  0.278736410652E+01  0.382609640904E+01
  0.260888410021E+01  0.240092524372E+01  0.338653142162E+01  0.256219378233E+01  0.269743552983E+01  0.847540713717E+01  0.899734138618E+01
  0.727520913278E+01  0.133044234840E+02  0.938269517236E+01  0.932831799959E+01  0.111706501833E+02  0.131436272116E+02  0.113082691387E+02
  0.141153722465E+02  0.157265004040E+02  0.890702720850E+01  0.113547472377E+02  0.102631461532E+02  0.859691428106E+01  0.583740500107E+01
  0.676215849173E+01  0.630933202130E+01  0.566195352769E+01  0.438468761624E+01  0.652340269385E+01  0.179670706256E+00  0.103932829707E+01
  0.662174890026E+00  0.654316586825E+00  0.472546319360E+00  0.480177715824E+00  0.810638780390E+00  0.931054727625E+00  0.894780750158E+00
  0.938854683018E+00  0.121416122748E+01  0.194519547711E+01 -0.958968675052E+00  0.195476519327E+02  0.191864864289E+02  0.181845074049E+02
  0.187816774279E+02  0.186970744520E+02  0.156784794980E+02  0.183840458127E+02  0.170326884414E+02  0.156379022606E+02  0.168500785223E+02
  0.152404542489E+02  0.136889364651E+02  0.105590888370E+02  0.702290571121E+01  0.770626544418E+01  0.530850789206E+01  0.251611695269E+01
  0.118105610687E+01  0.324398957657E+01  0.433135958625E+01  0.506487320114E+01  0.626385711621E+01  0.345480862962E+01  0.539457186289E+01
  0.510693792816E+01  0.454317910590E+01  0.549444555524E+00  0.148052897136E+00  0.281427729162E+01  0.956945280948E+01  0.685757685574E+01
  0.720901439942E+01  0.948423140612E+01  0.102479265974E+02  0.811482554389E+01  0.138593893556E+02  0.118243256328E+02  0.125456718484E+02
  0.103377959811E+02  0.118376414036E+00  0.108386781544E+02 -0.899995371972E+00 -0.234981949285E+00 -0.324142524678E+00  0.478928786394E-01
  0.578591980135E+00  0.415311156054E+00  0.630475956356E-01  0.433219802185E-01  0.427870410867E+00  0.312515964862E+00 -0.394294048965E+00
 -0.463329091895E+00 -0.766614668429E+00 -0.455016612659E+00  0.241524371460E+00 -0.131117862163E+00  0.358143110725E+00 -0.278041311715E+00
  0.631554093243E+00  0.485735237782E+00  0.955853187223E+00  0.505075383610E+00  0.728363636109E+00  0.680615188728E+00  0.119805225590E+01
  0.313864594751E+01  0.292743734701E+01  0.440658584829E+01  0.431713669599E+01  0.131948989674E+01  0.169255497023E+01  0.136960007837E+01
  0.117854344746E+01  0.122281856441E+01  0.153621391677E+01  0.124123997449E+01  0.818556670530E+00  0.931801989672E+00  0.902957379012E+00
 -0.399453233524E+00 -0.433444433730E-01  0.708741433724E+00  0.790792358057E+00  0.829347395998E+00  0.772562554480E+00  0.294123611372E+00
  0.532271271906E+00 -0.357410620375E-01  0.139058848162E+00  0.541030447973E+00  0.114478097912E+01  0.101406737250E+01  0.142414166810E+01
  0.161250097057E+01  0.118500505973E+01  0.126846375755E+01  0.153390497047E+01  0.202515919404E+01  0.164555646173E+01 -0.158548741814E+01
 -0.215569673609E+00  0.712314362915E+01  0.719910267606E+01  0.109186213979E+02  0.127220803945E+02  0.868931139031E+01  0.781096648838E+01
 -0.124475046118E+00  0.905667318784E+01  0.674889885235E+01  0.796381132532E+01  0.108886781830E+02  0.130307811225E+02  0.135610899169E+02
  0.871860832600E+01  0.117568973747E+02  0.195776028069E+01  0.118409234402E+01  0.140507258088E+01  0.241376383172E+00  0.122319105942E+01
  0.112677782117E+01  0.267432169732E+01  0.251469307649E+01  0.744961878957E+01  0.603944818874E+01  0.479609908555E+01  0.743457578546E+01
  0.440050457478E+01  0.581596085848E+01  0.701176186424E+01  0.467814231528E+01  0.569918904533E+01  0.358423076045E+01  0.866341912498E+01
  0.609143087652E+01  0.923316086487E+01  0.658694856375E+01  0.715260860548E+01  0.555405254770E+01  0.144163843837E+02  0.158568046297E+02
  0.168786276600E+02  0.149285855321E+02  0.104386627952E+02  0.137744314719E+02  0.122111631493E+02  0.113356423749E+02  0.950025696146E+01
  0.721453886707E+01  0.921877438405E+01  0.725259714250E+01  0.473892369221E+01  0.175346460940E+02 -0.416458095146E+00 -0.147909287583E+01
  0.120918571800E+01  0.197437171011E+01  0.284883771437E+01  0.190034547743E+01  0.338941331466E+01  0.301122619951E+01  0.438834459969E+00
  0.167718006193E+01  0.327579772884E+01  0.598134151412E+01  0.545784101738E+01  0.400526811353E+01  0.496553799984E+01  0.315669214945E+01
  0.294451916748E+01  0.389364075428E+01  0.166750798015E+00 -0.302801151467E+00  0.119729935457E+01  0.334263151540E+01  0.385160669657E+01
  0.184938469839E+01  0.127756926513E+01  0.107799546334E+01  0.142629050930E+01  0.121752384586E+01  0.159688664765E+01  0.420727112461E+00
  0.498014093459E+00  0.697073850821E+00  0.691352950963E+00  0.921079742600E+00  0.930178087137E+00  0.628879597790E+00  0.819579501738E+00
  0.986217207514E+00  0.680778274482E+00  0.208093064964E+01  0.228620607724E+01  0.196011143502E+01  0.208886107937E+01  0.213549562931E+01
  0.203488946576E+01  0.210061714191E+01  0.120917212979E+01  0.144960775950E+01  0.152418987120E+01  0.148522322681E+01  0.149679991913E+01
  0.137913111115E+01  0.696510855956E+00  0.988743542963E+00  0.987068261375E+00  0.774695093616E+00  0.158165438765E+01  0.166881233958E+01
  0.183159185389E+01  0.175195373967E+01  0.174123936181E+01  0.202583430665E+01  0.177789012427E+01  0.537803296119E+01  0.364790164045E+01
  0.426366392072E+01  0.346809370635E+01  0.408069063640E+01  0.440812130167E+01  0.352684281143E+01  0.295065675797E+01  0.204063839857E+01
  0.218009868959E+01  0.226017122408E+01  0.248573688445E+01  0.175364487162E+01  0.234294831712E+01  0.225964959359E+01  0.253888414760E+01
  0.139734959648E+01  0.524487462226E+00  0.837621676259E+00  0.760046499097E+00  0.983702897856E+00  0.138602375609E+01  0.900240076106E+00
  0.311616651064E+01  0.191347038861E+01  0.219156128017E+01  0.194942683879E+01  0.263158361600E+01  0.220697924018E+01  0.269838977179E+01
  0.210013503781E+01  0.197389208117E+01  0.193909087535E+01  0.195936204569E+01  0.821623015547E+01  0.596560090738E+01  0.510830117865E+01
  0.575333175284E+01  0.503373241130E+01  0.937935025071E+01  0.738765860058E+01  0.104248618694E+02  0.141351806335E+02  0.107510608865E+02
  0.126134933407E+02  0.158195308689E+02  0.174400564438E+02  0.161947485363E+02  0.129124814089E+02  0.177079459535E+02  0.865759236940E+01
  0.701483369189E+01  0.785188763003E+01  0.736290666932E+01  0.106256461905E+02  0.536690477777E+01  0.274879969377E+01  0.329563895625E+01
  0.580936938622E+00  0.585912083716E+00  0.169053539121E+01  0.162365717062E+02  0.128986121059E+02  0.137212096837E+02  0.671279241175E+01
  0.826825235211E+01  0.381064720812E+01  0.239991064799E+01 -0.149523545214E-01  0.220108255817E+01  0.456657173953E+01 -0.153681983853E+00
  0.325375832083E+01  0.255416955221E+01  0.320199966225E+01  0.366565179304E+01  0.499256022976E+01  0.597027783616E+01  0.647656270687E+01
  0.597976913495E+01  0.421715836599E+01  0.241373416099E+00  0.880019268583E+01  0.116016920662E+02  0.909869631727E+01  0.811730829975E+01
 -0.900973477603E+00 -0.797194773410E+00 -0.381304500766E+00 -0.303667464566E+00  0.613270773428E-01  0.102925402469E+00  0.287882709064E+00