title="tecplot geometry and solution file"
variables=x y z rho u v w p
zone t="processor 5", solutiontime= 0.3000000E+03, strandid=0, n=2941, e=13115, f=feblock, et=tetrahedron
 -0.868326190181E+00 -0.868326190181E+00 -0.814711754147E+00 -0.868326190181E+00 -0.868326190181E+00 -0.868326190181E+00 -0.814879284112E+00
 -0.807746284346E+00 -0.868326190181E+00 -0.816393671535E+00 -0.868326190181E+00 -0.868326190181E+00 -0.868326190181E+00 -0.868326190181E+00
 -0.805771173464E+00 -0.813476388265E+00 -0.752514568762E+00 -0.740080747662E+00 -0.812453639942E+00 -0.868326190181E+00 -0.811250930523E+00
 -0.804399780631E+00 -0.868326190181E+00 -0.868326190181E+00 -0.868326190181E+00 -0.784378473549E+00 -0.868326190181E+00 -0.868326190181E+00
 -0.868326190181E+00 -0.868326190181E+00 -0.808130541825E+00 -0.739209026929E+00 -0.755522743788E+00 -0.750153502483E+00 -0.810920186363E+00
 -0.817128294984E+00 -0.664498805859E+00 -0.724269773033E+00 -0.651655131919E+00 -0.687809419672E+00 -0.822694255622E+00 -0.868326190181E+00
 -0.821405354592E+00 -0.781222075310E+00 -0.868326190181E+00 -0.868326190181E+00 -0.775715896370E+00 -0.672995629174E+00 -0.868326190181E+00
 -0.815507835762E+00 -0.785579844185E+00 -0.745587166060E+00 -0.810849363763E+00 -0.868326190181E+00 -0.868326190181E+00 -0.805024309569E+00
 -0.726290308813E+00 -0.779324691599E+00 -0.868326190181E+00 -0.868326190181E+00 -0.868326190181E+00 -0.868326190181E+00 -0.803471302313E+00
 -0.735011351277E+00 -0.719754981084E+00 -0.762414686963E+00 -0.701793713106E+00 -0.868326190181E+00 -0.820615122486E+00 -0.814745850443E+00
 -0.807803947773E+00 -0.868326190181E+00 -0.812050448688E+00 -0.651373583011E+00 -0.638787633840E+00 -0.620941690680E+00 -0.688748596035E+00
 -0.610723181102E+00 -0.521765915887E+00 -0.622963219829E+00 -0.660880981926E+00 -0.686391424082E+00 -0.722427655942E+00 -0.868326190181E+00
 -0.868326190181E+00 -0.868326190181E+00 -0.868326190181E+00 -0.812150671551E+00 -0.686336701252E+00 -0.813347997365E+00 -0.748359462011E+00
 -0.731392699716E+00 -0.868326190181E+00 -0.868326190181E+00 -0.868326190181E+00 -0.699801955930E+00 -0.868326190181E+00 -0.868326190181E+00
 -0.805876707790E+00 -0.802181724100E+00 -0.809664897617E+00 -0.710789878651E+00 -0.797945885214E+00 -0.738023557719E+00 -0.772961461917E+00
 -0.650735450195E+00 -0.739649394974E+00 -0.680758386221E+00 -0.868326190181E+00 -0.868326190181E+00 -0.868326190181E+00 -0.868326190181E+00
 -0.808874764497E+00 -0.752662202616E+00 -0.683908988375E+00 -0.766897472869E+00 -0.814517297977E+00 -0.868326190181E+00 -0.868326190181E+00
 -0.868326190181E+00 -0.810057201323E+00 -0.811539901051E+00 -0.868326190181E+00 -0.819790042409E+00 -0.541856344679E+00 -0.586624953964E+00
 -0.552528547666E+00 -0.616623330396E+00 -0.592246187330E+00 -0.525651277384E+00 -0.667958466294E+00 -0.646066224158E+00 -0.620688391855E+00
 -0.592271282154E+00 -0.275427931165E+00 -0.408553939994E+00 -0.500519470377E+00 -0.427606289591E+00 -0.599506258795E+00 -0.688518394007E+00
 -0.727526352944E+00 -0.625801290142E+00 -0.758446962929E+00 -0.691075512901E+00 -0.727883621588E+00 -0.755907793177E+00 -0.868326190181E+00
 -0.868326190181E+00 -0.868326190181E+00 -0.868326190181E+00 -0.868326190181E+00 -0.802343600419E+00 -0.799475037068E+00 -0.810823719584E+00
 -0.868326190181E+00 -0.780484814977E+00 -0.723177426274E+00 -0.627477006579E+00 -0.727044314439E+00 -0.715973015215E+00 -0.868326190181E+00
 -0.868326190181E+00 -0.868326190181E+00 -0.728853845633E+00 -0.689837187023E+00 -0.800361768737E+00 -0.718561402432E+00 -0.868326190181E+00
 -0.868326190181E+00 -0.868326190181E+00 -0.806872541099E+00 -0.781201625675E+00 -0.761447665824E+00 -0.585281006967E+00 -0.755116182745E+00
 -0.676465386886E+00 -0.868326190181E+00 -0.868326190181E+00 -0.868326190181E+00 -0.868326190181E+00 -0.801748418762E+00 -0.808639632244E+00
 -0.812403802790E+00 -0.868326190181E+00 -0.868326190181E+00 -0.868326190181E+00 -0.815997978520E+00 -0.811167547114E+00 -0.868326190181E+00
 -0.815736149468E+00 -0.868326190181E+00 -0.473294325074E+00 -0.447903978527E+00 -0.543041530643E+00 -0.581867488089E+00 -0.524846722974E+00
 -0.458254606779E+00 -0.680245009750E+00 -0.606045827014E+00 -0.663619124839E+00 -0.570870521365E+00 -0.538336252804E+00 -0.687985026892E+00
 -0.664197450962E+00 -0.496811824885E+00 -0.635905271428E+00 -0.675931186305E+00 -0.505308312507E+00 -0.470262680521E+00 -0.638382184861E+00
 -0.184540413481E+00 -0.652678665947E-01 -0.280052273039E+00 -0.864769592620E-01 -0.300911843048E+00 -0.279709982895E+00 -0.386809445036E+00
 -0.540400178485E+00 -0.620062954412E+00 -0.703878029203E+00 -0.741592433206E+00 -0.794944885316E+00 -0.750517948761E+00 -0.681257813937E+00
 -0.589734939571E+00 -0.745489130048E+00 -0.812088136530E+00 -0.779214057113E+00 -0.722920030664E+00 -0.752349224343E+00 -0.746827479275E+00
 -0.868326190181E+00 -0.868326190181E+00 -0.816965402907E+00 -0.868326190181E+00 -0.807316633008E+00 -0.868326190181E+00 -0.868326190181E+00
 -0.810168225871E+00 -0.752138547906E+00 -0.815052542349E+00 -0.868326190181E+00 -0.816578634040E+00 -0.748077488080E+00 -0.868326190181E+00
 -0.675048311170E+00 -0.619709176917E+00 -0.754568646866E+00 -0.700868572003E+00 -0.868326190181E+00 -0.868326190181E+00 -0.868326190181E+00
 -0.796987078921E+00 -0.778428319348E+00 -0.779363750130E+00 -0.681771641697E+00 -0.868326190181E+00 -0.798737928884E+00 -0.868326190181E+00
 -0.868326190181E+00 -0.868326190181E+00 -0.868326190181E+00 -0.868326190181E+00 -0.868326190181E+00 -0.496332049987E+00 -0.815084953790E+00
 -0.868326190181E+00 -0.868326190181E+00 -0.868326190181E+00 -0.868326190181E+00 -0.868326190181E+00 -0.868326190181E+00 -0.812276398548E+00
 -0.868326190181E+00 -0.868326190181E+00 -0.868326190181E+00 -0.868326190181E+00 -0.868326190181E+00 -0.810457608447E+00 -0.366751085610E+00
 -0.391542973290E+00 -0.354697780180E+00 -0.456820419693E+00 -0.526186939853E+00 -0.469590150734E+00 -0.394284914168E+00 -0.685268043623E+00
 -0.707362878496E+00 -0.646056292774E+00 -0.549899989008E+00 -0.644116533093E+00 -0.547652609647E+00 -0.439128450590E+00 -0.770796950110E+00
 -0.600629041806E+00 -0.642273654661E+00 -0.788813746734E+00 -0.726377053975E+00 -0.697692883934E+00 -0.277969633666E+00 -0.476843290783E+00
 -0.350899089815E+00 -0.528452751777E+00 -0.679028197976E+00 -0.579960451232E+00 -0.587070107206E+00 -0.436821994858E+00 -0.294868830465E+00
 -0.475052483389E+00 -0.738607661768E+00 -0.679300000543E+00 -0.739979857478E+00  0.614834231695E-01 -0.208136621221E+00  0.189733858659E+00
 -0.188530648696E+00  0.843888710536E-01 -0.101087863557E+00  0.387884323340E-01 -0.155837041433E+00 -0.123070732810E+00 -0.960006150362E-01
  0.307268969306E+00  0.113945394176E+00 -0.263420358719E+00 -0.356707325751E+00 -0.274512126446E+00 -0.542444297896E+00 -0.510106383094E+00
 -0.613172081639E+00 -0.651045425802E+00 -0.693218056697E+00 -0.868326190181E+00 -0.868326190181E+00 -0.808769229626E+00 -0.810640898207E+00
 -0.868326190181E+00 -0.756202585490E+00 -0.808438127882E+00 -0.743329535201E+00 -0.539503040613E+00 -0.631499261626E+00 -0.626926668187E+00
 -0.808976527042E+00 -0.868326190181E+00 -0.790552694033E+00 -0.750177220419E+00 -0.798808277994E+00 -0.868326190181E+00 -0.868326190181E+00
 -0.868326190181E+00 -0.868326190181E+00 -0.868326190181E+00 -0.810321029422E+00 -0.806605332317E+00 -0.732757283176E+00 -0.868326190181E+00
 -0.868326190181E+00 -0.868326190181E+00 -0.817838992603E+00 -0.783491951946E+00 -0.643173904167E+00 -0.799165829390E+00 -0.718724394521E+00
 -0.719269980544E+00 -0.868326190181E+00 -0.868326190181E+00 -0.868326190181E+00 -0.868326190181E+00 -0.868326190181E+00 -0.532139205465E+00
 -0.749784269561E+00 -0.868326190181E+00 -0.868326190181E+00 -0.435627452039E+00 -0.346602347072E+00 -0.868326190181E+00 -0.868326190181E+00
 -0.815432663055E+00 -0.810876804035E+00 -0.794591092784E+00 -0.868326190181E+00 -0.868326190181E+00 -0.868326190181E+00 -0.868326190181E+00
 -0.808281590141E+00 -0.264635256131E+00 -0.291412863713E+00 -0.252366011308E+00 -0.317309508224E+00 -0.447254440462E+00 -0.444172190736E+00
 -0.442378139929E+00 -0.301719684530E+00 -0.708730799973E+00 -0.723761497075E+00 -0.710548709795E+00 -0.789576938405E+00 -0.595131221325E+00
 -0.630637089090E+00 -0.573535654023E+00 -0.666318799397E+00 -0.677144937136E+00 -0.463770122646E+00 -0.549179703440E+00 -0.716580845356E+00
 -0.521297759540E+00 -0.626352013359E+00 -0.436223357214E+00 -0.334068658286E+00 -0.333882759831E+00 -0.690091243855E+00 -0.592354014456E+00
 -0.679953496449E+00 -0.688589382760E+00 -0.780312521649E+00 -0.868326190181E+00 -0.868326190181E+00 -0.812070085298E+00 -0.794443219371E+00
 -0.774373118788E+00 -0.868326190181E+00 -0.108369049212E+00 -0.159788276216E-01 -0.217725196418E+00 -0.333062775185E+00 -0.604622839525E+00
 -0.573826095976E+00 -0.432871896872E+00 -0.425110843822E+00 -0.251093591109E+00 -0.598256928424E+00 -0.743482635088E+00 -0.672194122201E+00
 -0.576144193661E+00 -0.669824705043E+00 -0.580395696488E+00 -0.347296635920E+00 -0.465826226347E+00 -0.409580283033E+00 -0.166251597406E+00
 -0.562015813304E+00 -0.734614029937E+00 -0.748494216634E+00  0.116504039744E+00  0.377805168828E+00  0.266631917633E+00  0.130332683663E+00
 -0.181521586348E+00  0.243632707474E+00  0.528834775222E+00  0.331257717341E+00  0.404019677521E+00 -0.198499391303E+00  0.124634935656E+00
  0.412189742034E-01 -0.305777585988E-01 -0.140380821343E+00  0.908111382509E-01 -0.155029946486E+00  0.293744197281E+00  0.836095254842E-01
 -0.693993888941E-01 -0.174286470296E+00 -0.106968596656E+00 -0.321058035055E+00  0.748583232658E-01  0.535762155880E-01  0.536770358095E+00
  0.612386794754E+00  0.274173279435E+00  0.396117100140E+00 -0.357022303691E+00 -0.273541346287E+00 -0.596958905326E+00 -0.549209326350E+00
 -0.521060857216E+00 -0.664792094686E+00 -0.681443824402E+00 -0.761438752118E+00 -0.868326190181E+00 -0.868326190181E+00 -0.868326190181E+00
 -0.816013706561E+00 -0.750036216453E+00 -0.802684031810E+00 -0.868326190181E+00 -0.660938681814E+00 -0.741423307004E+00 -0.868326190181E+00
 -0.818283740389E+00 -0.868326190181E+00 -0.868326190181E+00 -0.868326190181E+00 -0.868326190181E+00 -0.868326190181E+00 -0.868326190181E+00
 -0.868326190181E+00 -0.868326190181E+00 -0.786608937654E+00 -0.800222740205E+00 -0.868326190181E+00 -0.818213826543E+00 -0.868326190181E+00
 -0.817306373457E+00 -0.647800904895E+00 -0.741716312778E+00 -0.755461439367E+00 -0.804605066948E+00 -0.753120003791E+00 -0.868326190181E+00
 -0.968103928842E+00 -0.609240948118E+00 -0.377451821195E+00 -0.884205444460E+00 -0.755698914206E+00 -0.768771069365E+00 -0.481532939953E+00
 -0.414097144225E+00 -0.868326190181E+00 -0.868326190181E+00 -0.868326190181E+00 -0.812907915942E+00 -0.868326190181E+00 -0.816198457853E+00
 -0.868326190181E+00 -0.789183437485E+00 -0.868326190181E+00 -0.868326190181E+00 -0.793030283085E+00 -0.811909417127E+00 -0.804947419077E+00
 -0.275314117028E+00 -0.360086866238E+00 -0.405265758480E+00 -0.171222514804E+00 -0.214559729701E+00 -0.294937547650E+00 -0.314810325738E+00
 -0.207611883366E+00 -0.249575210050E+00 -0.412184020223E+00 -0.375014397144E+00 -0.415534149398E+00 -0.510322164194E+00 -0.389085410602E+00
 -0.327557462138E+00 -0.478046569440E+00 -0.734563351716E+00 -0.801645424446E+00 -0.722456007972E+00 -0.868326190181E+00 -0.519663105376E+00
 -0.552187421271E+00 -0.502575050813E+00 -0.620833162520E+00 -0.511522605417E+00 -0.582631867228E+00 -0.596655371125E+00 -0.503241440919E+00
 -0.598712220179E+00 -0.485838125583E+00 -0.734021877260E+00 -0.674373249101E+00 -0.666259396003E+00 -0.663435480955E+00 -0.738803802134E+00
 -0.672882433302E+00 -0.667323031326E+00 -0.741461158267E+00 -0.745023704126E+00 -0.400065190405E+00 -0.518563292138E+00 -0.611552144153E+00
 -0.795037543040E+00 -0.581861707532E+00 -0.582219376947E+00 -0.665408054320E+00 -0.409476460980E+00 -0.269212303165E+00 -0.315292647213E+00
 -0.446646636701E+00 -0.385879579341E+00 -0.753177904383E+00 -0.868326190181E+00 -0.715122072996E+00 -0.665048166515E+00 -0.680534084068E+00
 -0.793571334503E+00 -0.783583697656E+00 -0.868326190181E+00 -0.868326190181E+00 -0.868326190181E+00 -0.868326190181E+00 -0.868326190181E+00
 -0.868326190181E+00 -0.115615016790E+01 -0.929046032928E+00 -0.110145609894E+01 -0.977541647998E+00 -0.147134524785E+00 -0.242736762807E+00
  0.122724881577E+00 -0.146515656667E+00  0.203516150790E+00  0.952800200690E-01 -0.960520384065E-01 -0.354556925803E+00 -0.391679667595E+00
 -0.170101472303E+00 -0.528322052963E+00 -0.580734848985E+00 -0.398817133349E+00 -0.541642276238E+00 -0.732311623605E+00 -0.424001393259E+00
 -0.543498116734E+00 -0.124220400772E+00 -0.317498411738E+00 -0.284621239376E+00 -0.387325115740E+00 -0.681808772261E+00 -0.775350622276E+00
 -0.689432765483E+00 -0.744074178670E+00 -0.673816857192E+00 -0.607962636714E+00 -0.740856176360E+00 -0.754157252220E+00 -0.609861539557E+00
 -0.667429072703E+00 -0.630957607419E+00 -0.606390898506E+00 -0.523514087014E+00 -0.325118609440E+00  0.206160237126E-01 -0.180207478382E+00
 -0.690857748304E-01 -0.636448762251E+00 -0.696082701496E+00 -0.549795001549E+00  0.509073355923E-01  0.378801815246E+00  0.705786819822E+00
  0.438460299777E+00  0.694496984462E+00 -0.734030588423E-01  0.728440323719E+00  0.635349476606E+00  0.808352784515E+00  0.626709983909E+00
  0.962444179794E+00  0.711888586809E+00  0.216558147239E+00  0.541908990898E+00  0.750345167332E+00  0.193250198033E+00 -0.522287205761E-01
 -0.619163441727E-01  0.994299550689E-01 -0.505054076803E-01  0.408461575688E+00  0.180501923985E+00 -0.210625334059E+00  0.665903164124E+00
  0.353844082987E+00 -0.149971963841E-01 -0.547963630729E-01  0.595830895909E-01  0.863578394390E-01 -0.143381424769E+00 -0.190375337472E+00
 -0.192284291546E+00 -0.309260279070E+00 -0.237840537889E+00 -0.181852832567E+00  0.290820648451E+00  0.510574124824E+00  0.384707572922E+00
  0.199506040286E+00  0.481184340839E-01  0.342295610461E+00  0.772088313361E-01  0.839025240200E+00  0.995876739711E+00  0.735147755225E+00
  0.502713385525E+00  0.623132094988E+00 -0.448200685671E+00 -0.592791085955E+00 -0.678754813010E+00 -0.494158392489E+00 -0.730989938705E+00
 -0.811173137300E+00 -0.868326190181E+00 -0.823910756345E+00 -0.744477980962E+00 -0.813779453912E+00 -0.868326190181E+00 -0.745085579234E+00
 -0.733506050760E+00 -0.664282458240E+00 -0.799090583780E+00 -0.868326190181E+00 -0.868326190181E+00 -0.868326190181E+00 -0.868326190181E+00
 -0.868326190181E+00 -0.868326190181E+00 -0.868326190181E+00 -0.817957528395E+00 -0.815628856791E+00 -0.868326190181E+00 -0.868326190181E+00
 -0.815506300139E+00 -0.809283129188E+00 -0.813584093946E+00 -0.868326190181E+00 -0.756929660287E+00 -0.809259498549E+00 -0.808166313156E+00
 -0.868326190181E+00 -0.868326190181E+00 -0.814082504869E+00 -0.808727084588E+00 -0.868326190181E+00 -0.102455582059E+01 -0.453570321781E+00
 -0.666912004414E+00 -0.740546188861E+00 -0.449244581696E+00 -0.938273598422E+00 -0.108854403177E+01 -0.840893246243E+00 -0.816082354787E+00
 -0.663096530927E+00 -0.408925455248E+00 -0.868326190181E+00 -0.868326190181E+00 -0.868326190181E+00 -0.868326190181E+00 -0.868326190181E+00
 -0.813014355660E+00 -0.813518932644E+00 -0.868326190181E+00 -0.868326190181E+00 -0.816904787998E+00 -0.868326190181E+00 -0.868326190181E+00
 -0.806288622591E+00 -0.808897585600E+00 -0.324445799990E+00 -0.486964270934E+00 -0.362203764157E+00 -0.428143589725E+00 -0.147041515764E+00
 -0.203778379082E+00 -0.903895092577E-01 -0.243214758213E+00 -0.326039970987E+00 -0.297839620597E+00 -0.306542321788E+00 -0.352476625973E+00
 -0.201881491536E+00 -0.556704356229E+00 -0.465154808940E+00 -0.485480784684E+00 -0.481225682135E+00 -0.590036204349E+00 -0.416123801202E+00
 -0.368953790052E+00 -0.342143445702E+00 -0.500724456468E+00 -0.531679282877E+00 -0.803422196675E+00 -0.745244546881E+00 -0.789749830457E+00
 -0.677182948732E+00 -0.751994416035E+00 -0.868326190181E+00 -0.614557911388E+00 -0.653275544335E+00 -0.506376447086E+00 -0.708475567007E+00
 -0.576786849329E+00 -0.651596857441E+00 -0.586303999350E+00 -0.605071453118E+00 -0.573009944534E+00 -0.543945903292E+00 -0.481629018377E+00
 -0.636874416584E+00 -0.736806474241E+00 -0.743168346621E+00 -0.810426622634E+00 -0.812349296749E+00 -0.672661773522E+00 -0.735036359303E+00
 -0.684285801599E+00 -0.730496446208E+00 -0.712348408233E+00 -0.659567899766E+00 -0.806427914088E+00 -0.795190028638E+00 -0.695544532403E+00
 -0.792418889538E+00 -0.608287165221E+00 -0.810702726035E+00 -0.806055087700E+00 -0.665249426684E+00 -0.634946590922E+00 -0.422395322978E+00
 -0.263957886429E+00 -0.353512698150E+00 -0.477910819226E+00 -0.552204241435E+00 -0.412198823606E+00 -0.396424190436E+00 -0.868326190181E+00
 -0.927914638046E+00 -0.963381340273E+00 -0.868326190181E+00 -0.730999566494E+00 -0.797494883542E+00 -0.806247384410E+00 -0.868326190181E+00
 -0.868326190181E+00 -0.868326190181E+00 -0.117788433025E+01 -0.984715772224E+00 -0.120249012037E+01 -0.113013132302E+01 -0.109388445558E+01
 -0.145857058247E+00 -0.474951586941E+00 -0.127330706814E+00 -0.269559851517E-01  0.445480634029E+00  0.168964598767E+00 -0.352410382659E+00
  0.415971532741E+00  0.684912212006E+00  0.140372294110E+00 -0.186995566920E+00 -0.578574841887E+00 -0.378131711500E+00 -0.489665935833E+00
 -0.521506554870E+00 -0.224887783409E+00 -0.155792692708E+00 -0.755127630244E+00 -0.420549668125E+00 -0.567634568694E+00 -0.235694731895E+00
 -0.584473263766E+00 -0.652600599868E+00 -0.529818720693E+00 -0.188603610182E+00 -0.402015101133E+00 -0.371444292563E+00 -0.174685792829E+00
 -0.357635783135E+00 -0.489874854914E+00 -0.340266422029E+00 -0.714204520532E+00 -0.769341643653E+00 -0.868326190181E+00 -0.868326190181E+00
 -0.706802238413E+00 -0.745136687285E+00 -0.697882776016E+00 -0.659466026726E+00 -0.752913817363E+00 -0.811798289169E+00 -0.807018487124E+00
 -0.807201937835E+00 -0.749280116593E+00 -0.699152709273E+00 -0.727677100271E+00 -0.705477603022E+00 -0.573596923202E+00 -0.668041645092E+00
 -0.635012251098E+00 -0.671938738055E+00 -0.578829374354E+00 -0.680925578260E+00 -0.596393978635E+00 -0.668722579497E+00 -0.421331984226E-01
 -0.237075377944E+00 -0.119282279355E+00  0.753855711719E-01 -0.748760551802E+00 -0.797234692246E+00 -0.598863639875E+00  0.119471741869E+01
  0.881165859250E+00 -0.731644116817E-01 -0.395681629515E-01  0.106946105214E+01  0.990089940289E+00  0.677695361802E+00  0.758207764669E+00
  0.103294484966E+01  0.993612424555E+00  0.104597332312E+01  0.139019281532E+01  0.361816919488E+00  0.690876710638E+00  0.890935408858E+00
  0.100466583716E+01  0.126538448580E+00  0.336502457454E+00  0.394396775110E+00  0.807877749410E-01 -0.472511780134E-01  0.291743677125E+00
  0.161612270939E+00  0.289397178220E+00  0.117662534718E+00  0.981262520830E-01 -0.805254750082E-02  0.519359993888E-02 -0.775709728115E-01
  0.563216588987E+00  0.547277383275E+00  0.197368917959E+00  0.332868675872E+00 -0.175826864110E+00  0.565386037280E+00  0.164712773108E+00
  0.365533193479E+00  0.221867232974E+00 -0.107777409568E+00 -0.139459579793E+00 -0.171383682930E-01 -0.301999044012E-01 -0.968406005781E-01
 -0.187416958972E+00 -0.202619331474E+00 -0.288942604340E+00 -0.245652107631E+00 -0.316102979844E+00 -0.255854171225E+00  0.309788044347E+00
  0.303374182187E+00  0.404549452003E+00  0.701608351742E+00  0.566004421028E-01  0.645977858809E-01  0.110225461892E-01  0.652635504425E+00
  0.785709411773E-02  0.680801885959E+00  0.965945509613E+00 -0.537101906731E+00 -0.494638120458E+00 -0.781233248481E+00 -0.868326190181E+00
 -0.868326190181E+00 -0.868326190181E+00 -0.805654934552E+00 -0.803434395284E+00 -0.812309012974E+00 -0.733473895912E+00 -0.735657758481E+00
 -0.868326190181E+00 -0.868326190181E+00 -0.868326190181E+00 -0.868326190181E+00 -0.868326190181E+00 -0.868326190181E+00 -0.814664991323E+00
 -0.868326190181E+00 -0.746406829456E+00 -0.812630807190E+00 -0.868326190181E+00 -0.868326190181E+00 -0.868326190181E+00 -0.868326190181E+00
 -0.868326190181E+00 -0.868326190181E+00 -0.868326190181E+00 -0.868326190181E+00 -0.757464429516E+00 -0.379930382594E+00 -0.808155722761E+00
 -0.963810845815E+00 -0.425525918792E+00 -0.868326190181E+00 -0.868326190181E+00 -0.868326190181E+00 -0.808714471841E+00 -0.868326190181E+00
 -0.868326190181E+00 -0.806762111938E+00 -0.868326190181E+00 -0.868326190181E+00 -0.868326190181E+00 -0.868326190181E+00 -0.868326190181E+00
 -0.808756943718E+00 -0.310323334505E+00 -0.416932458691E+00 -0.349631151967E+00 -0.175582221525E+00 -0.261670779379E+00 -0.142879336001E+00
 -0.248749785427E+00 -0.169085912663E+00 -0.261196659396E-01 -0.381472471034E+00 -0.405503848417E+00 -0.333018505588E+00 -0.285079520026E+00
 -0.326588751553E+00 -0.579351866116E+00 -0.481956414571E+00 -0.590047243576E+00 -0.502191932242E+00 -0.550685232442E+00 -0.516822002171E+00
 -0.585639119760E+00 -0.567632980496E+00 -0.460924672686E+00 -0.671612834883E+00 -0.434483553369E+00 -0.415351341524E+00 -0.382376884525E+00
 -0.568352928343E+00 -0.501777508853E+00 -0.593529417163E+00 -0.649293975618E+00 -0.508414900445E+00 -0.868326190181E+00 -0.752615017222E+00
 -0.694059424086E+00 -0.700004144816E+00 -0.672320049276E+00 -0.729350873224E+00 -0.518798603129E+00 -0.749942978684E+00 -0.668252984056E+00
 -0.587262348674E+00 -0.599622058352E+00 -0.649737106493E+00 -0.651629166544E+00 -0.506968916403E+00 -0.737009691876E+00 -0.678723213062E+00
 -0.658873216654E+00 -0.752919526532E+00 -0.765370313799E+00 -0.809746533318E+00 -0.868326190181E+00 -0.868326190181E+00 -0.868326190181E+00
 -0.868326190181E+00 -0.868326190181E+00 -0.868326190181E+00 -0.812453869400E+00 -0.814328522537E+00 -0.735012569349E+00 -0.812715921878E+00
 -0.671827283807E+00 -0.736540819365E+00 -0.749012059201E+00 -0.750576804503E+00 -0.777450459525E+00 -0.813952544066E+00 -0.726248613796E+00
 -0.806585975441E+00 -0.684976887559E+00 -0.614653192992E+00 -0.868326190181E+00 -0.868326190181E+00 -0.868326190181E+00 -0.868326190181E+00
 -0.810136733412E+00 -0.868326190181E+00 -0.868326190181E+00 -0.648046488325E+00 -0.730223143026E+00 -0.401060796156E+00 -0.341834546448E+00
 -0.207243284444E+00 -0.290111119882E+00 -0.287606165803E+00 -0.584282437781E+00 -0.476919395872E+00 -0.621890873346E+00 -0.449319467102E+00
 -0.413789441881E+00 -0.927940550782E+00 -0.106580087646E+01 -0.868326190181E+00 -0.762968857935E+00 -0.868326190181E+00 -0.805184512752E+00
 -0.868326190181E+00 -0.868326190181E+00 -0.868326190181E+00  0.533225511844E-01 -0.325182855757E+00 -0.541615993189E+00  0.834502117470E+00
  0.749373974633E+00  0.105151566211E+01 -0.304733626572E+00 -0.751155552829E+00 -0.587779663068E+00 -0.509970744513E+00 -0.570127816981E+00
 -0.236485335763E+00 -0.259857765003E+00 -0.328158781648E+00 -0.379359759938E-01 -0.779562205508E+00 -0.689984332422E+00 -0.675962447648E+00
 -0.757017356352E+00 -0.780516005385E+00 -0.624061282586E+00 -0.531169091134E+00 -0.472535413533E+00 -0.280142557240E+00 -0.457182073744E+00
 -0.109818559412E+00 -0.335661874721E+00 -0.279634727419E+00 -0.491930957538E+00 -0.596887935760E+00 -0.615229342807E+00 -0.444041207428E+00
 -0.807047857215E+00 -0.801300462305E+00 -0.726093076432E+00 -0.868326190181E+00 -0.868326190181E+00 -0.868326190181E+00 -0.746194883077E+00
 -0.780315623557E+00 -0.815077072915E+00 -0.868326190181E+00 -0.868326190181E+00 -0.868326190181E+00 -0.818288411121E+00 -0.809993119530E+00
 -0.746085828566E+00 -0.810029408927E+00 -0.809597555166E+00 -0.744744823255E+00 -0.790579527294E+00 -0.655310515929E+00 -0.723770235744E+00
 -0.748715236225E+00 -0.742034705304E+00 -0.659315371853E+00 -0.753009372219E+00 -0.612741059628E+00 -0.700425309236E+00 -0.744975223912E+00
 -0.627421987891E-01  0.844547174646E-01  0.192648780572E+00 -0.819623232294E+00 -0.868326190181E+00 -0.868326190181E+00 -0.868326190181E+00
 -0.698231057354E+00  0.166430419940E+01  0.128656422497E+01  0.134029622239E+01 -0.160931683529E+00 -0.153126097490E+00  0.138596451682E+00
  0.150595722916E-01 -0.114741720032E+00 -0.123706995725E+00 -0.307726352502E-01  0.477134159445E-01  0.141815193400E+00  0.137750950302E+01
  0.940824698840E+00  0.738577237426E+00  0.749831651224E+00  0.126535169910E+01  0.963471098517E+00 -0.526215775772E-01  0.224242233894E+00
  0.606422574418E+00  0.431662084514E+00  0.181472159555E+00  0.483172244368E+00  0.218929358682E+00  0.424281010596E+00 -0.322335088473E-01
  0.362258507913E+00  0.582376358138E-01  0.256193622693E+00  0.390387866886E-01 -0.685080467085E-01  0.127174680891E+00  0.780864437424E-02
  0.776195542198E-01 -0.851369356306E-01 -0.160939872827E+00  0.603821588810E+00  0.605727360803E+00  0.708889068839E+00  0.145787297943E+00
  0.310727479285E+00  0.503337696883E+00  0.448178721375E+00  0.256969982820E+00  0.501874569001E+00  0.396752839461E+00  0.116149658954E+00
  0.214299903997E+00  0.219125208731E+00 -0.271422716027E-01  0.134796305540E+00 -0.191194454376E+00 -0.184696455835E+00 -0.555064855753E-01
 -0.186336772045E+00 -0.761197059052E-01 -0.185266768551E+00 -0.121004796204E+00  0.580242898980E-01  0.123970622380E-01 -0.214304541418E+00
 -0.249577921300E+00 -0.296796141513E+00 -0.347164733124E+00 -0.280223846268E+00 -0.409815262462E+00 -0.401797821431E+00  0.472461377135E+00
  0.127126438971E+00  0.307221784224E+00  0.266580265384E+00  0.622044999567E+00 -0.169339645074E-01  0.658540092876E+00  0.100318573048E+01
 -0.198470429509E+00 -0.101265700069E+00  0.284126904784E-01 -0.665700906835E+00 -0.574900445356E+00 -0.544639927153E+00 -0.868326190181E+00
 -0.868326190181E+00 -0.868326190181E+00 -0.811823539892E+00 -0.868326190181E+00 -0.868326190181E+00 -0.868326190181E+00 -0.814911005644E+00
 -0.790781541736E+00 -0.868326190181E+00 -0.748934466508E+00 -0.772398077244E+00 -0.748975448040E+00 -0.790086608526E+00 -0.595186645086E+00
 -0.100369840082E+01 -0.474646066463E+00 -0.868326190181E+00 -0.868326190181E+00 -0.819662171967E+00 -0.868326190181E+00 -0.868326190181E+00
 -0.138660153778E+00 -0.201193694954E+00 -0.341055452818E+00 -0.461917623420E+00 -0.403143337851E+00 -0.350671018888E+00 -0.297949374173E+00
 -0.359163004472E+00 -0.607216209472E+00 -0.546256620933E+00 -0.729048042972E+00 -0.667053820786E+00 -0.493334854611E+00 -0.571523331433E+00
 -0.564423646308E+00 -0.585760552930E+00 -0.643008888900E+00 -0.527292725354E+00 -0.517949568941E+00 -0.464052628962E+00 -0.503830775748E+00
 -0.594442284271E+00 -0.570823889453E+00 -0.686021875020E+00 -0.664520825575E+00 -0.655616138044E+00 -0.752001027672E+00 -0.740891786800E+00
 -0.685568208656E+00 -0.589108980929E+00 -0.529320062559E+00 -0.811259060310E+00 -0.751576509803E+00 -0.727120044428E+00 -0.756100192229E+00
 -0.725344042724E+00 -0.542671273727E+00 -0.808016354456E+00 -0.818139837412E+00 -0.809264903888E+00 -0.582838867009E+00 -0.631279998328E+00
 -0.716402190456E+00 -0.642989433682E+00 -0.723364420465E+00 -0.745350240485E+00 -0.706446373046E+00 -0.633915192450E+00 -0.513155864179E+00
 -0.760085086439E+00 -0.746889029362E+00 -0.809594894611E+00 -0.712701753334E+00 -0.801500211412E+00 -0.671031566844E+00 -0.868326190181E+00
 -0.868326190181E+00 -0.868326190181E+00 -0.868326190181E+00 -0.868326190181E+00 -0.868326190181E+00 -0.868326190181E+00 -0.868326190181E+00
 -0.868326190181E+00 -0.813110779567E+00 -0.810431318030E+00 -0.814439889653E+00 -0.868326190181E+00 -0.868326190181E+00 -0.868326190181E+00
 -0.656059154511E+00 -0.742528182255E+00 -0.808094227755E+00 -0.798472622329E+00 -0.753044273112E+00 -0.739560954039E+00 -0.816105091463E+00
 -0.814512522596E+00 -0.868326190181E+00 -0.868326190181E+00 -0.868326190181E+00 -0.868326190181E+00 -0.689657923553E+00 -0.868326190181E+00
 -0.544677026343E+00 -0.868326190181E+00 -0.868326190181E+00 -0.750010616796E+00 -0.813623037870E+00 -0.813997417161E+00 -0.797203828591E+00
 -0.414934209119E+00 -0.318852257335E+00 -0.271228427105E+00 -0.326342396032E+00 -0.527376723169E+00 -0.688454565193E+00 -0.538955488322E+00
 -0.482618666309E+00 -0.439180326652E+00 -0.493915886423E+00 -0.411549163756E+00 -0.105653089780E+01 -0.804358049486E+00 -0.675263589173E+00
 -0.867773442782E+00 -0.868326190181E+00 -0.868326190181E+00 -0.868326190181E+00 -0.447147490933E+00 -0.650439241587E+00 -0.433361577550E+00
 -0.744194831256E+00 -0.522459469085E+00 -0.622150977855E+00 -0.387766121377E+00 -0.597693210412E+00 -0.868326190181E+00 -0.746918162665E+00
 -0.604512929819E+00 -0.803851282959E+00 -0.801164411197E+00 -0.732238448063E+00 -0.780971244863E+00 -0.603269592534E+00 -0.745374396160E+00
 -0.710932092983E+00 -0.868326190181E+00 -0.868326190181E+00 -0.812103669760E+00 -0.868326190181E+00 -0.868326190181E+00 -0.868326190181E+00
 -0.868326190181E+00 -0.819706404722E+00 -0.805678149079E+00 -0.490208438565E+00 -0.484471105708E+00 -0.307127655214E+00 -0.246622739606E+00
 -0.222891381174E+00 -0.424740950138E+00 -0.532968023576E+00 -0.408046807871E+00 -0.630279145405E+00 -0.700270496736E+00 -0.868326190181E+00
 -0.868326190181E+00 -0.754322228787E+00 -0.868326190181E+00 -0.868326190181E+00 -0.868326190181E+00 -0.868326190181E+00 -0.868326190181E+00
 -0.868326190181E+00 -0.816279051772E+00 -0.812187783787E+00 -0.811109466686E+00 -0.868326190181E+00 -0.868326190181E+00 -0.868326190181E+00
 -0.801656480136E+00 -0.811222553253E+00 -0.745454420642E+00 -0.805356134138E+00 -0.806834252254E+00 -0.817480963308E+00 -0.798350513061E+00
 -0.607434461129E+00 -0.674998338619E+00 -0.761319834756E+00 -0.743432796840E+00 -0.810456271321E+00 -0.811977498080E+00 -0.785699264569E+00
 -0.531761446353E-01  0.469036160005E-01  0.280438848261E+00  0.124975230816E+00 -0.789183468477E+00  0.205286711514E+00 -0.250377668566E-02
 -0.212734501039E-01  0.114684119554E+01  0.699042280831E+00 -0.210388797102E+00 -0.560319108084E-01 -0.247988151805E+00  0.421263760096E+00
  0.246025972457E+00  0.101710520583E+00  0.473946280501E-01  0.367815905216E+00  0.489610054890E+00  0.231052808714E+00  0.205728517362E+00
 -0.154501225266E+00 -0.447691357546E-01 -0.825455153546E-01  0.177390588473E+00  0.225559066887E+00  0.760613121372E-01  0.163283560399E-01