TITLE="fun3d_case_title"
VARIABLES="Iteration" "R_1" "R_2" "R_3" "R_4" "R_5" "C_L" "C_D" "C_M_x" "C_M_y" "C_M_z" "Wall Time" "C_x" "C_y" "C_z" "C_Lp" "C_Dp" "C_Lv" "C_Dv" "C_M_xp" "C_M_yp" "C_M_zp" "C_M_xv" "C_M_yv" "C_M_zv" "C_xp" "C_yp" "C_zp" "C_xv" "C_yv" "C_zv"
ZONE  I=1800 F=POINT
1  0.3920652953E-03  0.3818245472E-04  0.3180222202E-15  0.1869518332E-08  0.9820224948E-03 -0.5397692013E-03  0.9776414848E+00 -0.1289217047E-05  0.2062395042E-02 -0.8962194193E-03  0.6470000000E+00  0.9776414572E+00 -0.2561678675E-03 -0.5876372251E-03 -0.5397692013E-03  0.9776414848E+00  0.0000000000E+00  0.0000000000E+00 -0.1289217047E-05  0.2062395042E-02 -0.8962194193E-03  0.0000000000E+00  0.0000000000E+00  0.0000000000E+00  0.9776414572E+00 -0.2561678675E-03 -0.5876372251E-03  0.0000000000E+00  0.0000000000E+00  0.0000000000E+00
2  0.3885960427E-03  0.3496562341E-04  0.2047962843E-05  0.2066572875E-05  0.9700225220E-03 -0.1106416432E-02  0.1995095030E+01 -0.2627258488E-05  0.4229454241E-02 -0.1849712750E-02  0.6820000000E+00  0.1995094973E+01 -0.5302748113E-03 -0.1204101788E-02 -0.1106416432E-02  0.1995095030E+01  0.0000000000E+00  0.0000000000E+00 -0.2627258488E-05  0.4229454241E-02 -0.1849712750E-02  0.0000000000E+00  0.0000000000E+00  0.0000000000E+00  0.1995094973E+01 -0.5302748113E-03 -0.1204101788E-02  0.0000000000E+00  0.0000000000E+00  0.0000000000E+00
3  0.3849054557E-03  0.3306941722E-04  0.4159949934E-05  0.4197351932E-05  0.9575010541E-03 -0.1698962271E-02  0.3050124473E+01 -0.4010262654E-05  0.6497838543E-02 -0.2860032763E-02  0.7160000000E+00  0.3050124387E+01 -0.8225441998E-03 -0.1848304778E-02 -0.1698962271E-02  0.3050124473E+01  0.0000000000E+00  0.0000000000E+00 -0.4010262654E-05  0.6497838543E-02 -0.2860032763E-02  0.0000000000E+00  0.0000000000E+00  0.0000000000E+00  0.3050124387E+01 -0.8225441998E-03 -0.1848304778E-02  0.0000000000E+00  0.0000000000E+00  0.0000000000E+00
4  0.3809938030E-03  0.3287433735E-04  0.6329918289E-05  0.6386193332E-05  0.9444845505E-03 -0.2316267275E-02  0.4140384733E+01 -0.5434124827E-05  0.8863641472E-02 -0.3926333567E-02  0.7480000000E+00  0.4140384615E+01 -0.1133120876E-02 -0.2518991932E-02 -0.2316267275E-02  0.4140384733E+01  0.0000000000E+00  0.0000000000E+00 -0.5434124827E-05  0.8863641472E-02 -0.3926333567E-02  0.0000000000E+00  0.0000000000E+00  0.0000000000E+00  0.4140384615E+01 -0.1133120876E-02 -0.2518991932E-02  0.0000000000E+00  0.0000000000E+00  0.0000000000E+00
5  0.3768625167E-03  0.3453337702E-04  0.8551838657E-05  0.8626959928E-05  0.9310018338E-03 -0.2957030184E-02  0.5263424986E+01 -0.6894511557E-05  0.1132238956E-01 -0.5047324141E-02  0.7820000000E+00  0.5263424835E+01 -0.1462062029E-02 -0.3214741990E-02 -0.2957030184E-02  0.5263424986E+01  0.0000000000E+00  0.0000000000E+00 -0.6894511557E-05  0.1132238956E-01 -0.5047324141E-02  0.0000000000E+00  0.0000000000E+00  0.0000000000E+00  0.5263424835E+01 -0.1462062029E-02 -0.3214741990E-02  0.0000000000E+00  0.0000000000E+00  0.0000000000E+00
6  0.3725143105E-03  0.3789760004E-04  0.1081971423E-04  0.1091354684E-04  0.9170842026E-03 -0.3619769928E-02  0.6416692530E+01 -0.8386852986E-05  0.1386896438E-01 -0.6221234838E-02  0.8150000000E+00  0.6416692345E+01 -0.1809324834E-02 -0.3933948894E-02 -0.3619769928E-02  0.6416692530E+01  0.0000000000E+00  0.0000000000E+00 -0.8386852986E-05  0.1386896438E-01 -0.6221234838E-02  0.0000000000E+00  0.0000000000E+00  0.0000000000E+00  0.6416692345E+01 -0.1809324834E-02 -0.3933948894E-02  0.0000000000E+00  0.0000000000E+00  0.0000000000E+00
7  0.3679532902E-03  0.4263085847E-04  0.1312759721E-04  0.1323989885E-04  0.9027655320E-03 -0.4302816713E-02  0.7597537161E+01 -0.9906362704E-05  0.1649758465E-01 -0.7445776199E-02  0.8440000000E+00  0.7597536941E+01 -0.2174758412E-02 -0.4674813089E-02 -0.4302816713E-02  0.7597537161E+01  0.0000000000E+00  0.0000000000E+00 -0.9906362704E-05  0.1649758465E-01 -0.7445776199E-02  0.0000000000E+00  0.0000000000E+00  0.0000000000E+00  0.7597536941E+01 -0.2174758412E-02 -0.4674813089E-02  0.0000000000E+00  0.0000000000E+00  0.0000000000E+00
8  0.3631850581E-03  0.4837471747E-04  0.1546960270E-04  0.1560002464E-04  0.8880823662E-03 -0.5004310226E-02  0.8803216208E+01 -0.1144805358E-04  0.1920180629E-01 -0.8718114090E-02  0.8750000000E+00  0.8803215952E+01 -0.2558098882E-02 -0.5435339974E-02 -0.5004310226E-02  0.8803216208E+01  0.0000000000E+00  0.0000000000E+00 -0.1144805358E-04  0.1920180629E-01 -0.8718114090E-02  0.0000000000E+00  0.0000000000E+00  0.0000000000E+00  0.8803215952E+01 -0.2558098882E-02 -0.5435339974E-02  0.0000000000E+00  0.0000000000E+00  0.0000000000E+00
9  0.3582168090E-03  0.5483469194E-04  0.1783992082E-04  0.1798800950E-04  0.8730739933E-03 -0.5722194469E-02  0.1003090021E+02 -0.1300673943E-04  0.2197450166E-01 -0.1003482445E-01  0.9090000000E+00  0.1003089992E+02 -0.2958948865E-02 -0.6213335012E-02 -0.5722194469E-02  0.1003090021E+02  0.0000000000E+00  0.0000000000E+00 -0.1300673943E-04  0.2197450166E-01 -0.1003482445E-01  0.0000000000E+00  0.0000000000E+00  0.0000000000E+00  0.1003089992E+02 -0.2958948865E-02 -0.6213335012E-02  0.0000000000E+00  0.0000000000E+00  0.0000000000E+00
10  0.3530574156E-03  0.6179291220E-04  0.2023282699E-04  0.2039802614E-04  0.8577825016E-03 -0.6454230019E-02  0.1127767928E+02 -0.1457707386E-04  0.2480788299E-01 -0.1139189018E-01  0.9380000000E+00  0.1127767895E+02 -0.3376778679E-02 -0.7006416304E-02 -0.6454230019E-02  0.1127767928E+02  0.0000000000E+00  0.0000000000E+00 -0.1457707386E-04  0.2480788299E-01 -0.1139189018E-01  0.0000000000E+00  0.0000000000E+00  0.0000000000E+00  0.1127767895E+02 -0.3376778679E-02 -0.7006416304E-02  0.0000000000E+00  0.0000000000E+00  0.0000000000E+00
11  0.3477175025E-03  0.6909255179E-04  0.2264269127E-04  0.2282434484E-04  0.8422528090E-03 -0.7197982431E-02  0.1254057009E+02 -0.1615355671E-04  0.2769351220E-01 -0.1278469870E-01  0.9711000000E+00  0.1254056972E+02 -0.3810921946E-02 -0.7812003334E-02 -0.7197982431E-02  0.1254057009E+02  0.0000000000E+00  0.0000000000E+00 -0.1615355671E-04  0.2769351220E-01 -0.1278469870E-01  0.0000000000E+00  0.0000000000E+00  0.0000000000E+00  0.1254056972E+02 -0.3810921946E-02 -0.7812003334E-02  0.0000000000E+00  0.0000000000E+00  0.0000000000E+00
12  0.3422095079E-03  0.7661935574E-04  0.2506398629E-04  0.2526134215E-04  0.8265326632E-03 -0.7950831022E-02  0.1381652347E+02 -0.1773055700E-04  0.3062230239E-01 -0.1420800486E-01  0.1001000000E+01  0.1381652306E+02 -0.4260569208E-02 -0.8627326122E-02 -0.7950831022E-02  0.1381652347E+02  0.0000000000E+00  0.0000000000E+00 -0.1773055700E-04  0.3062230239E-01 -0.1420800486E-01  0.0000000000E+00  0.0000000000E+00  0.0000000000E+00  0.1381652306E+02 -0.4260569208E-02 -0.8627326122E-02  0.0000000000E+00  0.0000000000E+00  0.0000000000E+00
13  0.3365477301E-03  0.8428748851E-04  0.2749129457E-04  0.2770350920E-04  0.8106726034E-03 -0.8709956055E-02  0.1510243269E+02 -0.1930237838E-04  0.3358447263E-01 -0.1565599369E-01  0.1034000000E+01  0.1510243225E+02 -0.4724780886E-02 -0.9449412817E-02 -0.8709956055E-02  0.1510243269E+02  0.0000000000E+00  0.0000000000E+00 -0.1930237838E-04  0.3358447263E-01 -0.1565599369E-01  0.0000000000E+00  0.0000000000E+00  0.0000000000E+00  0.1510243225E+02 -0.4724780886E-02 -0.9449412817E-02  0.0000000000E+00  0.0000000000E+00  0.0000000000E+00
14  0.3307483574E-03  0.9202999502E-04  0.2991931557E-04  0.3014545981E-04  0.7947258804E-03 -0.9472386848E-02  0.1639514253E+02 -0.2086323257E-04  0.3656976860E-01 -0.1712220932E-01  0.1067000000E+01  0.1639514205E+02 -0.5202453002E-02 -0.1027513825E-01 -0.9472386848E-02  0.1639514253E+02  0.0000000000E+00  0.0000000000E+00 -0.2086323257E-04  0.3656976860E-01 -0.1712220932E-01  0.0000000000E+00  0.0000000000E+00  0.0000000000E+00  0.1639514205E+02 -0.5202453002E-02 -0.1027513825E-01  0.0000000000E+00  0.0000000000E+00  0.0000000000E+00
15  0.3248294778E-03  0.9979264294E-04  0.3234287315E-04  0.3258193876E-04  0.7787483196E-03 -0.1023499922E-01  0.1769145863E+02 -0.2240730076E-04  0.3956745722E-01 -0.1859965261E-01  0.1097000000E+01  0.1769145810E+02 -0.5692349281E-02 -0.1110122183E-01 -0.1023499922E-01  0.1769145863E+02  0.0000000000E+00  0.0000000000E+00 -0.2240730076E-04  0.3956745722E-01 -0.1859965261E-01  0.0000000000E+00  0.0000000000E+00  0.0000000000E+00  0.1769145810E+02 -0.5692349281E-02 -0.1110122183E-01  0.0000000000E+00  0.0000000000E+00  0.0000000000E+00
16  0.3188110687E-03  0.1075299827E-03  0.3475692231E-04  0.3500782975E-04  0.7627981282E-03 -0.1099451285E-01  0.1898815792E+02 -0.2392875552E-04  0.4256622425E-01 -0.2008060319E-01  0.1128000000E+01  0.1898815736E+02 -0.6193019894E-02 -0.1192422544E-01 -0.1099451285E-01  0.1898815792E+02  0.0000000000E+00  0.0000000000E+00 -0.2392875552E-04  0.4256622425E-01 -0.2008060319E-01  0.0000000000E+00  0.0000000000E+00  0.0000000000E+00  0.1898815736E+02 -0.6193019894E-02 -0.1192422544E-01  0.0000000000E+00  0.0000000000E+00  0.0000000000E+00
17  0.3127149563E-03  0.1152028238E-03  0.3715655895E-04  0.3741816535E-04  0.7469356213E-03 -0.1174750411E-01  0.2028199942E+02 -0.2542179887E-04  0.4555431297E-01 -0.2155671109E-01  0.1160000000E+01  0.2028199883E+02 -0.6702852721E-02 -0.1274056674E-01 -0.1174750411E-01  0.2028199942E+02  0.0000000000E+00  0.0000000000E+00 -0.2542179887E-04  0.4555431297E-01 -0.2155671109E-01  0.0000000000E+00  0.0000000000E+00  0.0000000000E+00  0.2028199883E+02 -0.6702852721E-02 -0.1274056674E-01  0.0000000000E+00  0.0000000000E+00  0.0000000000E+00
18  0.3065647494E-03  0.1227766002E-03  0.3953702761E-04  0.3980813715E-04  0.7312228749E-03 -0.1249047751E-01  0.2156973523E+02 -0.2688069698E-04  0.4851975649E-01 -0.2301902863E-01  0.1191000000E+01  0.2156973459E+02 -0.7220076118E-02 -0.1354659124E-01 -0.1249047751E-01  0.2156973523E+02  0.0000000000E+00  0.0000000000E+00 -0.2688069698E-04  0.4851975649E-01 -0.2301902863E-01  0.0000000000E+00  0.0000000000E+00  0.0000000000E+00  0.2156973459E+02 -0.7220076118E-02 -0.1354659124E-01  0.0000000000E+00  0.0000000000E+00  0.0000000000E+00
19  0.3003857431E-03  0.1302202974E-03  0.4189372991E-04  0.4217310449E-04  0.7157233002E-03 -0.1321988435E-01  0.2284812228E+02 -0.2829981897E-04  0.5145042232E-01 -0.2445789062E-01  0.1223000000E+01  0.2284812161E+02 -0.7742704506E-02 -0.1433859144E-01 -0.1321988435E-01  0.2284812228E+02  0.0000000000E+00  0.0000000000E+00 -0.2829981897E-04  0.5145042232E-01 -0.2445789062E-01  0.0000000000E+00  0.0000000000E+00  0.0000000000E+00  0.2284812161E+02 -0.7742704506E-02 -0.1433859144E-01  0.0000000000E+00  0.0000000000E+00  0.0000000000E+00
20  0.2942047807E-03  0.1375057508E-03  0.4422223383E-04  0.4450860507E-04  0.7005011087E-03 -0.1393201292E-01  0.2411393509E+02 -0.2967372030E-04  0.5433370164E-01 -0.2586346988E-01  0.1251000000E+01  0.2411393438E+02 -0.8268682168E-02 -0.1511269769E-01 -0.1393201292E-01  0.2411393509E+02  0.0000000000E+00  0.0000000000E+00 -0.2967372030E-04  0.5433370164E-01 -0.2586346988E-01  0.0000000000E+00  0.0000000000E+00  0.0000000000E+00  0.2411393438E+02 -0.8268682168E-02 -0.1511269769E-01  0.0000000000E+00  0.0000000000E+00  0.0000000000E+00
21  0.2880500681E-03  0.1446071954E-03  0.4651828625E-04  0.4681037025E-04  0.6856206611E-03 -0.1462327333E-01  0.2536397801E+02 -0.3099709348E-04  0.5715737365E-01 -0.2722551510E-01  0.1285000000E+01  0.2536397727E+02 -0.8795795826E-02 -0.1586516365E-01 -0.1462327333E-01  0.2536397801E+02  0.0000000000E+00  0.0000000000E+00 -0.3099709348E-04  0.5715737365E-01 -0.2722551510E-01  0.0000000000E+00  0.0000000000E+00  0.0000000000E+00  0.2536397727E+02 -0.8795795826E-02 -0.1586516365E-01  0.0000000000E+00  0.0000000000E+00  0.0000000000E+00
22  0.2819509476E-03  0.1515009642E-03  0.4877782438E-04  0.4907433494E-04  0.6711457297E-03 -0.1528998782E-01  0.2659509884E+02 -0.3226479865E-04  0.5990887364E-01 -0.2853349310E-01  0.1317000000E+01  0.2659509806E+02 -0.9321752608E-02 -0.1659215721E-01 -0.1528998782E-01  0.2659509884E+02  0.0000000000E+00  0.0000000000E+00 -0.3226479865E-04  0.5990887364E-01 -0.2853349310E-01  0.0000000000E+00  0.0000000000E+00  0.0000000000E+00  0.2659509806E+02 -0.9321752608E-02 -0.1659215721E-01  0.0000000000E+00  0.0000000000E+00  0.0000000000E+00
23  0.2759376122E-03  0.1581653116E-03  0.5099698928E-04  0.5129665730E-04  0.6571386349E-03 -0.1592839638E-01  0.2780420145E+02 -0.3347199028E-04  0.6257540548E-01 -0.2977669452E-01  0.1345000000E+01  0.2780420064E+02 -0.9844110404E-02 -0.1728976677E-01 -0.1592839638E-01  0.2780420145E+02  0.0000000000E+00  0.0000000000E+00 -0.3347199028E-04  0.6257540548E-01 -0.2977669452E-01  0.0000000000E+00  0.0000000000E+00  0.0000000000E+00  0.2780420064E+02 -0.9844110404E-02 -0.1728976677E-01  0.0000000000E+00  0.0000000000E+00  0.0000000000E+00
24  0.2700407730E-03  0.1645802944E-03  0.5317213786E-04  0.5347372747E-04  0.6436593084E-03 -0.1653490626E-01  0.2898825981E+02 -0.3461414817E-04  0.6514481594E-01 -0.3094404327E-01  0.1373000000E+01  0.2898825897E+02 -0.1036033104E-01 -0.1795425142E-01 -0.1653490626E-01  0.2898825981E+02  0.0000000000E+00  0.0000000000E+00 -0.3461414817E-04  0.6514481594E-01 -0.3094404327E-01  0.0000000000E+00  0.0000000000E+00  0.0000000000E+00  0.2898825897E+02 -0.1036033104E-01 -0.1795425142E-01  0.0000000000E+00  0.0000000000E+00  0.0000000000E+00
25  0.2642912566E-03  0.1707277251E-03  0.5529985752E-04  0.5560218338E-04  0.6307642438E-03 -0.1710594249E-01  0.3014433147E+02 -0.3568707507E-04  0.6760503658E-01 -0.3202441458E-01  0.1405000000E+01  0.3014433060E+02 -0.1086777678E-01 -0.1858189211E-01 -0.1710594249E-01  0.3014433147E+02  0.0000000000E+00  0.0000000000E+00 -0.3568707507E-04  0.6760503658E-01 -0.3202441458E-01  0.0000000000E+00  0.0000000000E+00  0.0000000000E+00  0.3014433060E+02 -0.1086777678E-01 -0.1858189211E-01  0.0000000000E+00  0.0000000000E+00  0.0000000000E+00
26  0.2587195479E-03  0.1765911475E-03  0.5737697881E-04  0.5767892558E-04  0.6185053986E-03 -0.1763806521E-01  0.3126957137E+02 -0.3668690740E-04  0.6994449892E-01 -0.3300675094E-01  0.1435000000E+01  0.3126957047E+02 -0.1136372462E-01 -0.1916910968E-01 -0.1763806521E-01  0.3126957137E+02  0.0000000000E+00  0.0000000000E+00 -0.3668690740E-04  0.6994449892E-01 -0.3300675094E-01  0.0000000000E+00  0.0000000000E+00  0.0000000000E+00  0.3126957047E+02 -0.1136372462E-01 -0.1916910968E-01  0.0000000000E+00  0.0000000000E+00  0.0000000000E+00
27  0.2533552734E-03  0.1821558406E-03  0.5940058802E-04  0.5970113137E-04  0.6069290548E-03 -0.1812795191E-01  0.3236124519E+02 -0.3761022190E-04  0.7215202008E-01 -0.3388033647E-01  0.1464000000E+01  0.3236124426E+02 -0.1184547094E-01 -0.1971244773E-01 -0.1812795191E-01  0.3236124519E+02  0.0000000000E+00  0.0000000000E+00 -0.3761022190E-04  0.7215202008E-01 -0.3388033647E-01  0.0000000000E+00  0.0000000000E+00  0.0000000000E+00  0.3236124426E+02 -0.1184547094E-01 -0.1971244773E-01  0.0000000000E+00  0.0000000000E+00  0.0000000000E+00
28  0.2482266374E-03  0.1874088389E-03  0.6136804105E-04  0.6166626771E-04  0.5960747039E-03 -0.1857258104E-01  0.3341674278E+02 -0.3845397361E-04  0.7421741397E-01 -0.3463437789E-01  0.1496000000E+01  0.3341674183E+02 -0.1231014028E-01 -0.2020875694E-01 -0.1857258104E-01  0.3341674278E+02  0.0000000000E+00  0.0000000000E+00 -0.3845397361E-04  0.7421741397E-01 -0.3463437789E-01  0.0000000000E+00  0.0000000000E+00  0.0000000000E+00  0.3341674183E+02 -0.1231014028E-01 -0.2020875694E-01  0.0000000000E+00  0.0000000000E+00  0.0000000000E+00
29  0.2433598215E-03  0.1923389679E-03  0.6327697495E-04  0.6357210433E-04  0.5859739912E-03 -0.1896926171E-01  0.3443359185E+02 -0.3921549440E-04  0.7613162758E-01 -0.3525875564E-01  0.1527000000E+01  0.3443359088E+02 -0.1275502171E-01 -0.2065522535E-01 -0.1896926171E-01  0.3443359185E+02  0.0000000000E+00  0.0000000000E+00 -0.3921549440E-04  0.7613162758E-01 -0.3525875564E-01  0.0000000000E+00  0.0000000000E+00  0.0000000000E+00  0.3443359088E+02 -0.1275502171E-01 -0.2065522535E-01  0.0000000000E+00  0.0000000000E+00  0.0000000000E+00
30  0.2387783554E-03  0.1969368900E-03  0.6512532400E-04  0.6541672422E-04  0.5766497635E-03 -0.1931542683E-01  0.3540947101E+02 -0.3989263993E-04  0.7788593149E-01 -0.3574363457E-01  0.1554000000E+01  0.3540947002E+02 -0.1317738311E-01 -0.2104917220E-01 -0.1931542683E-01  0.3540947101E+02  0.0000000000E+00  0.0000000000E+00 -0.3989263993E-04  0.7788593149E-01 -0.3574363457E-01  0.0000000000E+00  0.0000000000E+00  0.0000000000E+00  0.3540947002E+02 -0.1317738311E-01 -0.2104917220E-01  0.0000000000E+00  0.0000000000E+00  0.0000000000E+00
31  0.2345024942E-03  0.2011951473E-03  0.6691132954E-04  0.6719853862E-04  0.5681152964E-03 -0.1960878305E-01  0.3634222137E+02 -0.4048377336E-04  0.7947262513E-01 -0.3607966883E-01  0.1583000000E+01  0.3634222037E+02 -0.1357441399E-01 -0.2138819846E-01 -0.1960878305E-01  0.3634222137E+02  0.0000000000E+00  0.0000000000E+00 -0.4048377336E-04  0.7947262513E-01 -0.3607966883E-01  0.0000000000E+00  0.0000000000E+00  0.0000000000E+00  0.3634222037E+02 -0.1357441399E-01 -0.2138819846E-01  0.0000000000E+00  0.0000000000E+00  0.0000000000E+00
32  0.2305486365E-03  0.2051081917E-03  0.6863354539E-04  0.6891628870E-04  0.5603737700E-03 -0.1984748093E-01  0.3722985797E+02 -0.4098742069E-04  0.8088551023E-01 -0.3625830430E-01  0.1614000000E+01  0.3722985695E+02 -0.1394349222E-01 -0.2167035747E-01 -0.1984748093E-01  0.3722985797E+02  0.0000000000E+00  0.0000000000E+00 -0.4098742069E-04  0.8088551023E-01 -0.3625830430E-01  0.0000000000E+00  0.0000000000E+00  0.0000000000E+00  0.3722985695E+02 -0.1394349222E-01 -0.2167035747E-01  0.0000000000E+00  0.0000000000E+00  0.0000000000E+00
33  0.2269287953E-03  0.2086724052E-03  0.7029084618E-04  0.7056905565E-04  0.5534179753E-03 -0.2003000375E-01  0.3807058228E+02 -0.4140242102E-04  0.8211927550E-01 -0.3627149575E-01  0.1645000000E+01  0.3807058125E+02 -0.1428199756E-01 -0.2189404447E-01 -0.2003000375E-01  0.3807058228E+02  0.0000000000E+00  0.0000000000E+00 -0.4140242102E-04  0.8211927550E-01 -0.3627149575E-01  0.0000000000E+00  0.0000000000E+00  0.0000000000E+00  0.3807058125E+02 -0.1428199756E-01 -0.2189404447E-01  0.0000000000E+00  0.0000000000E+00  0.0000000000E+00
34  0.2236501738E-03  0.2118861522E-03  0.7188243575E-04  0.7215626436E-04  0.5472303794E-03 -0.2015511375E-01  0.3886279175E+02 -0.4172872267E-04  0.8316966712E-01 -0.3611267708E-01  0.1676000000E+01  0.3886279072E+02 -0.1458754835E-01 -0.2205794324E-01 -0.2015511375E-01  0.3886279175E+02  0.0000000000E+00  0.0000000000E+00 -0.4172872267E-04  0.8316966712E-01 -0.3611267708E-01  0.0000000000E+00  0.0000000000E+00  0.0000000000E+00  0.3886279072E+02 -0.1458754835E-01 -0.2205794324E-01  0.0000000000E+00  0.0000000000E+00  0.0000000000E+00
35  0.2207148754E-03  0.2147497866E-03  0.7340785350E-04  0.7367768150E-04  0.5417834932E-03 -0.2022214941E-01  0.3960508960E+02 -0.4196679742E-04  0.8403412259E-01 -0.3577592343E-01  0.1704000000E+01  0.3960508856E+02 -0.1485771656E-01 -0.2216132384E-01 -0.2022214941E-01  0.3960508960E+02  0.0000000000E+00  0.0000000000E+00 -0.4196679742E-04  0.8403412259E-01 -0.3577592343E-01  0.0000000000E+00  0.0000000000E+00  0.0000000000E+00  0.3960508856E+02 -0.1485771656E-01 -0.2216132384E-01  0.0000000000E+00  0.0000000000E+00  0.0000000000E+00
36  0.2181197828E-03  0.2172656786E-03  0.7486697536E-04  0.7513341870E-04  0.5370406004E-03 -0.2023099768E-01  0.4029629320E+02 -0.4211764873E-04  0.8471201001E-01 -0.3525713271E-01  0.1738000000E+01  0.4029629216E+02 -0.1509043335E-01 -0.2220401535E-01 -0.2023099768E-01  0.4029629320E+02  0.0000000000E+00  0.0000000000E+00 -0.4211764873E-04  0.8471201001E-01 -0.3525713271E-01  0.0000000000E+00  0.0000000000E+00  0.0000000000E+00  0.4029629216E+02 -0.1509043335E-01 -0.2220401535E-01  0.0000000000E+00  0.0000000000E+00  0.0000000000E+00
37  0.2158565754E-03  0.2194381822E-03  0.7626000681E-04  0.7652392330E-04  0.5329566614E-03 -0.2018169767E-01  0.4093544087E+02 -0.4218261504E-04  0.8520347361E-01 -0.3455401220E-01  0.1775000000E+01  0.4093543983E+02 -0.1528397217E-01 -0.2218600977E-01 -0.2018169767E-01  0.4093544087E+02  0.0000000000E+00  0.0000000000E+00 -0.4218261504E-04  0.8520347361E-01 -0.3455401220E-01  0.0000000000E+00  0.0000000000E+00  0.0000000000E+00  0.4093543983E+02 -0.1528397217E-01 -0.2218600977E-01  0.0000000000E+00  0.0000000000E+00  0.0000000000E+00
38  0.2139119701E-03  0.2212736281E-03  0.7758748392E-04  0.7784997995E-04  0.5294795952E-03 -0.2007479315E-01  0.4152179760E+02 -0.4216355455E-04  0.8551013336E-01 -0.3366527435E-01  0.1808000000E+01  0.4152179657E+02 -0.1543679591E-01 -0.2210781489E-01 -0.2007479315E-01  0.4152179760E+02  0.0000000000E+00  0.0000000000E+00 -0.4216355455E-04  0.8551013336E-01 -0.3366527435E-01  0.0000000000E+00  0.0000000000E+00  0.0000000000E+00  0.4152179657E+02 -0.1543679591E-01 -0.2210781489E-01  0.0000000000E+00  0.0000000000E+00  0.0000000000E+00
39  0.2122681155E-03  0.2227802822E-03  0.7885026478E-04  0.7911269538E-04  0.5265516693E-03 -0.1991137170E-01  0.4205485925E+02 -0.4206245658E-04  0.8563513452E-01 -0.3259085554E-01  0.1842000000E+01  0.4205485823E+02 -0.1554755008E-01 -0.2197049361E-01 -0.1991137170E-01  0.4205485925E+02  0.0000000000E+00  0.0000000000E+00 -0.4206245658E-04  0.8563513452E-01 -0.3259085554E-01  0.0000000000E+00  0.0000000000E+00  0.0000000000E+00  0.4205485823E+02 -0.1554755008E-01 -0.2197049361E-01  0.0000000000E+00  0.0000000000E+00  0.0000000000E+00
40  0.2109031428E-03  0.2239682884E-03  0.8004951549E-04  0.8031348266E-04  0.5241110269E-03 -0.1969306757E-01  0.4253435536E+02 -0.4188212114E-04  0.8558335321E-01 -0.3133268840E-01  0.1875000000E+01  0.4253435435E+02 -0.1561530607E-01 -0.2177566693E-01 -0.1969306757E-01  0.4253435536E+02  0.0000000000E+00  0.0000000000E+00 -0.4188212114E-04  0.8558335321E-01 -0.3133268840E-01  0.0000000000E+00  0.0000000000E+00  0.0000000000E+00  0.4253435435E+02 -0.1561530607E-01 -0.2177566693E-01  0.0000000000E+00  0.0000000000E+00  0.0000000000E+00
41  0.2097918463E-03  0.2248495959E-03  0.8118670050E-04  0.8145403882E-04  0.5220932686E-03 -0.1942177784E-01  0.4296025192E+02 -0.4162565329E-04  0.8536025314E-01 -0.2989417600E-01  0.1907000000E+01  0.4296025092E+02 -0.1563944189E-01 -0.2152523028E-01 -0.1942177784E-01  0.4296025192E+02  0.0000000000E+00  0.0000000000E+00 -0.4162565329E-04  0.8536025314E-01 -0.2989417600E-01  0.0000000000E+00  0.0000000000E+00  0.0000000000E+00  0.4296025092E+02 -0.1563944189E-01 -0.2152523028E-01  0.0000000000E+00  0.0000000000E+00  0.0000000000E+00
42  0.2089064699E-03  0.2254379028E-03  0.8226357534E-04  0.8253634064E-04  0.5204330795E-03 -0.1909986353E-01  0.4333274925E+02 -0.4129653602E-04  0.8497279409E-01 -0.2828043327E-01  0.1937000000E+01  0.4333274826E+02 -0.1561966504E-01 -0.2122155447E-01 -0.1909986353E-01  0.4333274925E+02  0.0000000000E+00  0.0000000000E+00 -0.4129653602E-04  0.8497279409E-01 -0.2828043327E-01  0.0000000000E+00  0.0000000000E+00  0.0000000000E+00  0.4333274826E+02 -0.1561966504E-01 -0.2122155447E-01  0.0000000000E+00  0.0000000000E+00  0.0000000000E+00
43  0.2082175010E-03  0.2257485113E-03  0.8328215770E-04  0.8356261178E-04  0.5190656485E-03 -0.1873010092E-01  0.4365228070E+02 -0.4089850202E-04  0.8442898017E-01 -0.2649776065E-01  0.1969000000E+01  0.4365227973E+02 -0.1555589276E-01 -0.2086743700E-01 -0.1873010092E-01  0.4365228070E+02  0.0000000000E+00  0.0000000000E+00 -0.4089850202E-04  0.8442898017E-01 -0.2649776065E-01  0.0000000000E+00  0.0000000000E+00  0.0000000000E+00  0.4365227973E+02 -0.1555589276E-01 -0.2086743700E-01  0.0000000000E+00  0.0000000000E+00  0.0000000000E+00
44  0.2076944872E-03  0.2257982066E-03  0.8424470837E-04  0.8453529209E-04  0.5179280233E-03 -0.1831569769E-01  0.4391950829E+02 -0.4043548347E-04  0.8373797407E-01 -0.2455389059E-01  0.1999000000E+01  0.4391950734E+02 -0.1544833991E-01 -0.2046611797E-01 -0.1831569769E-01  0.4391950829E+02  0.0000000000E+00  0.0000000000E+00 -0.4043548347E-04  0.8373797407E-01 -0.2455389059E-01  0.0000000000E+00  0.0000000000E+00  0.0000000000E+00  0.4391950734E+02 -0.1544833991E-01 -0.2046611797E-01  0.0000000000E+00  0.0000000000E+00  0.0000000000E+00
45  0.2073068196E-03  0.2256051042E-03  0.8515370780E-04  0.8545701596E-04  0.5169602942E-03 -0.1786014217E-01  0.4413531806E+02 -0.3991173942E-04  0.8290996027E-01 -0.2245782711E-01  0.2044000000E+01  0.4413531713E+02 -0.1529742383E-01 -0.2002112909E-01 -0.1786014217E-01  0.4413531806E+02  0.0000000000E+00  0.0000000000E+00 -0.3991173942E-04  0.8290996027E-01 -0.2245782711E-01  0.0000000000E+00  0.0000000000E+00  0.0000000000E+00  0.4413531713E+02 -0.1529742383E-01 -0.2002112909E-01  0.0000000000E+00  0.0000000000E+00  0.0000000000E+00
46  0.2070244643E-03  0.2251884917E-03  0.8601183220E-04  0.8633058985E-04  0.5161066176E-03 -0.1736728672E-01  0.4430081288E+02 -0.3933173132E-04  0.8195612299E-01 -0.2021968128E-01  0.2083000000E+01  0.4430081197E+02 -0.1510382721E-01 -0.1953637673E-01 -0.1736728672E-01  0.4430081288E+02  0.0000000000E+00  0.0000000000E+00 -0.3933173132E-04  0.8195612299E-01 -0.2021968128E-01  0.0000000000E+00  0.0000000000E+00  0.0000000000E+00  0.4430081197E+02 -0.1510382721E-01 -0.1953637673E-01  0.0000000000E+00  0.0000000000E+00  0.0000000000E+00
47  0.2068186164E-03  0.2245686558E-03  0.8682193650E-04  0.8715895619E-04  0.5153160589E-03 -0.1684129867E-01  0.4441730333E+02 -0.3870005991E-04  0.8088852651E-01 -0.1785096705E-01  0.2121000000E+01  0.4441730245E+02 -0.1486859543E-01 -0.1901609237E-01 -0.1684129867E-01  0.4441730333E+02  0.0000000000E+00  0.0000000000E+00 -0.3870005991E-04  0.8088852651E-01 -0.1785096705E-01  0.0000000000E+00  0.0000000000E+00  0.0000000000E+00  0.4441730245E+02 -0.1486859543E-01 -0.1901609237E-01  0.0000000000E+00  0.0000000000E+00  0.0000000000E+00
48  0.2066622404E-03  0.2237666830E-03  0.8758702815E-04  0.8794515816E-04  0.5145431832E-03 -0.1628665688E-01  0.4448629701E+02 -0.3802142606E-04  0.7972010423E-01 -0.1536434378E-01  0.2161000000E+01  0.4448629616E+02 -0.1459309323E-01 -0.1846482870E-01 -0.1628665688E-01  0.4448629701E+02  0.0000000000E+00  0.0000000000E+00 -0.3802142606E-04  0.7972010423E-01 -0.1536434378E-01  0.0000000000E+00  0.0000000000E+00  0.0000000000E+00  0.4448629616E+02 -0.1459309323E-01 -0.1846482870E-01  0.0000000000E+00  0.0000000000E+00  0.0000000000E+00
49  0.2065305053E-03  0.2228042326E-03  0.8831022218E-04  0.8869230728E-04  0.5137484618E-03 -0.1570808677E-01  0.4450948688E+02 -0.3730043304E-04  0.7846438511E-01 -0.1277360819E-01  0.2200000000E+01  0.4450948606E+02 -0.1427900556E-01 -0.1788739403E-01 -0.1570808677E-01  0.4450948688E+02  0.0000000000E+00  0.0000000000E+00 -0.3730043304E-04  0.7846438511E-01 -0.1277360819E-01  0.0000000000E+00  0.0000000000E+00  0.0000000000E+00  0.4450948606E+02 -0.1427900556E-01 -0.1788739403E-01  0.0000000000E+00  0.0000000000E+00  0.0000000000E+00
50  0.2064011203E-03  0.2217033109E-03  0.8899472018E-04  0.8940356241E-04  0.5128985075E-03 -0.1511035989E-01  0.4448873821E+02 -0.3654167025E-04  0.7713482118E-01 -0.1009383865E-01  0.2243000000E+01  0.4448873742E+02 -0.1392842412E-01 -0.1728865124E-01 -0.1511035989E-01  0.4448873821E+02  0.0000000000E+00  0.0000000000E+00 -0.3654167025E-04  0.7713482118E-01 -0.1009383865E-01  0.0000000000E+00  0.0000000000E+00  0.0000000000E+00  0.4448873742E+02 -0.1392842412E-01 -0.1728865124E-01  0.0000000000E+00  0.0000000000E+00  0.0000000000E+00
51  0.2062545961E-03  0.2204860521E-03  0.8964378821E-04  0.9008209856E-04  0.5119662185E-03 -0.1449827347E-01  0.4442607381E+02 -0.3574955672E-04  0.7574481422E-01 -0.7340528375E-02  0.2282000000E+01  0.4442607305E+02 -0.1354359960E-01 -0.1667349659E-01 -0.1449827347E-01  0.4442607381E+02  0.0000000000E+00  0.0000000000E+00 -0.3574955672E-04  0.7574481422E-01 -0.7340528375E-02  0.0000000000E+00  0.0000000000E+00  0.0000000000E+00  0.4442607305E+02 -0.1354359960E-01 -0.1667349659E-01  0.0000000000E+00  0.0000000000E+00  0.0000000000E+00
52  0.2060743961E-03  0.2191744834E-03  0.9026072557E-04  0.9073107294E-04  0.5109307337E-03 -0.1387668759E-01  0.4432365783E+02 -0.3492852514E-04  0.7430793211E-01 -0.4529475487E-02  0.2318000000E+01  0.4432365710E+02 -0.1312688857E-01 -0.1604689615E-01 -0.1387668759E-01  0.4432365783E+02  0.0000000000E+00  0.0000000000E+00 -0.3492852514E-04  0.7430793211E-01 -0.4529475487E-02  0.0000000000E+00  0.0000000000E+00  0.0000000000E+00  0.4432365710E+02 -0.1312688857E-01 -0.1604689615E-01  0.0000000000E+00  0.0000000000E+00  0.0000000000E+00
53  0.2058470051E-03  0.2177902971E-03  0.9084883636E-04  0.9135359600E-04  0.5097772571E-03 -0.1325043320E-01  0.4418377925E+02 -0.3408333628E-04  0.7283758467E-01 -0.1677226737E-02  0.2356000000E+01  0.4418377855E+02 -0.1268100550E-01 -0.1541379292E-01 -0.1325043320E-01  0.4418377925E+02  0.0000000000E+00  0.0000000000E+00 -0.3408333628E-04  0.7283758467E-01 -0.1677226737E-02  0.0000000000E+00  0.0000000000E+00  0.0000000000E+00  0.4418377855E+02 -0.1268100550E-01 -0.1541379292E-01  0.0000000000E+00  0.0000000000E+00  0.0000000000E+00
54  0.2055619192E-03  0.2163546067E-03  0.9141141073E-04  0.9195271483E-04  0.5084967613E-03 -0.1262425454E-01  0.4400883306E+02 -0.3321848319E-04  0.7134684572E-01  0.1198846311E-02  0.2390000000E+01  0.4400883239E+02 -0.1220908112E-01 -0.1477904842E-01 -0.1262425454E-01  0.4400883306E+02  0.0000000000E+00  0.0000000000E+00 -0.3321848319E-04  0.7134684572E-01  0.1198846311E-02  0.0000000000E+00  0.0000000000E+00  0.0000000000E+00  0.4400883239E+02 -0.1220908112E-01 -0.1477904842E-01  0.0000000000E+00  0.0000000000E+00  0.0000000000E+00