TITLE="fun3d_case_title"
VARIABLES="Iteration" "R_1" "R_2" "R_3" "R_4" "R_5" "C_L" "C_D" "C_M_x" "C_M_y" "C_M_z" "Wall Time" "C_x" "C_y" "C_z" "C_Lp" "C_Dp" "C_Lv" "C_Dv" "C_M_xp" "C_M_yp" "C_M_zp" "C_M_xv" "C_M_yv" "C_M_zv" "C_xp" "C_yp" "C_zp" "C_xv" "C_yv" "C_zv"
ZONE  I=2500 F=POINT
1  0.8566512341E-01  0.1822756833E+01  0.2004579008E-14  0.7232220071E-01  0.1963672849E+02  0.1282615095E-04  0.3279791637E-03 -0.3871382361E-09  0.4963344247E-06 -0.4486126508E-06  0.7110000000E+00  0.3282298082E-03 -0.1010354160E-06 -0.1870531182E-06  0.1282615095E-04  0.3279791637E-03  0.0000000000E+00  0.0000000000E+00 -0.3871382361E-09  0.4963344247E-06 -0.4486126508E-06  0.0000000000E+00  0.0000000000E+00  0.0000000000E+00  0.3282298082E-03 -0.1010354160E-06 -0.1870531182E-06  0.0000000000E+00  0.0000000000E+00  0.0000000000E+00
2  0.8501172202E-01  0.1808720424E+01  0.4147893928E-04  0.7176920162E-01  0.1948635278E+02  0.2559352048E-04  0.6547891658E-03 -0.8094009711E-09  0.1016681271E-05 -0.9535249531E-06  0.7520000000E+00  0.6552890435E-03 -0.2126575300E-06 -0.3864886560E-06  0.2559352048E-04  0.6547891658E-03  0.0000000000E+00  0.0000000000E+00 -0.8094009711E-09  0.1016681271E-05 -0.9535249531E-06  0.0000000000E+00  0.0000000000E+00  0.0000000000E+00  0.6552890435E-03 -0.2126575300E-06 -0.3864886560E-06  0.0000000000E+00  0.0000000000E+00  0.0000000000E+00
3  0.8442027939E-01  0.1795999143E+01  0.8378484483E-04  0.7126852716E-01  0.1935030790E+02  0.3831121309E-04  0.9806759090E-03 -0.1268172360E-08  0.1564659628E-05 -0.1518014387E-05  0.7991000000E+00  0.9814237763E-03 -0.3354063181E-06 -0.5989583676E-06  0.3831121309E-04  0.9806759090E-03  0.0000000000E+00  0.0000000000E+00 -0.1268172360E-08  0.1564659628E-05 -0.1518014387E-05  0.0000000000E+00  0.0000000000E+00  0.0000000000E+00  0.9814237763E-03 -0.3354063181E-06 -0.5989583676E-06  0.0000000000E+00  0.0000000000E+00  0.0000000000E+00
4  0.8388569063E-01  0.1784483832E+01  0.1269976063E-03  0.7081586345E-01  0.1922740413E+02  0.5098913405E-04  0.1305905206E-02 -0.1764923085E-08  0.2143599009E-05 -0.2146402866E-05  0.8380000000E+00  0.1306900003E-02 -0.4701224888E-06 -0.8251032179E-06  0.5098913405E-04  0.1305905206E-02  0.0000000000E+00  0.0000000000E+00 -0.1764923085E-08  0.2143599009E-05 -0.2146402866E-05  0.0000000000E+00  0.0000000000E+00  0.0000000000E+00  0.1306900003E-02 -0.4701224888E-06 -0.8251032179E-06  0.0000000000E+00  0.0000000000E+00  0.0000000000E+00
5  0.8340308835E-01  0.1774070441E+01  0.1711932090E-03  0.7040709761E-01  0.1911650823E+02  0.6363787215E-04  0.1630762566E-02 -0.2301087386E-08  0.2757017386E-05 -0.2842902056E-05  0.8830000000E+00  0.1632003428E-02 -0.6176000636E-06 -0.1065662132E-05  0.6363787215E-04  0.1630762566E-02  0.0000000000E+00  0.0000000000E+00 -0.2301087386E-08  0.2757017386E-05 -0.2842902056E-05  0.0000000000E+00  0.0000000000E+00  0.0000000000E+00  0.1632003428E-02 -0.6176000636E-06 -0.1065662132E-05  0.0000000000E+00  0.0000000000E+00  0.0000000000E+00
6  0.8296786605E-01  0.1764660525E+01  0.2164444728E-03  0.7003833745E-01  0.1901654869E+02  0.7626876037E-04  0.1955550956E-02 -0.2878047998E-08  0.3408560752E-05 -0.3611611760E-05  0.9180000000E+00  0.1957037230E-02 -0.7786292972E-06 -0.1321322487E-05  0.7626876037E-04  0.1955550956E-02  0.0000000000E+00  0.0000000000E+00 -0.2878047998E-08  0.3408560752E-05 -0.3611611760E-05  0.0000000000E+00  0.0000000000E+00  0.0000000000E+00  0.1957037230E-02 -0.7786292972E-06 -0.1321322487E-05  0.0000000000E+00  0.0000000000E+00  0.0000000000E+00
7  0.8257569437E-01  0.1756161578E+01  0.2628213388E-03  0.6970592525E-01  0.1892651946E+02  0.8889380908E-04  0.2280590654E-02 -0.3497242449E-08  0.4101979712E-05 -0.4456537667E-05  0.9560000000E+00  0.2282321911E-02 -0.9539259242E-06 -0.1592781169E-05  0.8889380908E-04  0.2280590654E-02  0.0000000000E+00  0.0000000000E+00 -0.3497242449E-08  0.4101979712E-05 -0.4456537667E-05  0.0000000000E+00  0.0000000000E+00  0.0000000000E+00  0.2282321911E-02 -0.9539259242E-06 -0.1592781169E-05  0.0000000000E+00  0.0000000000E+00  0.0000000000E+00
8  0.8222253086E-01  0.1748487240E+01  0.3103916281E-03  0.6940644598E-01  0.1884548206E+02  0.1015255783E-03  0.2606219380E-02 -0.4160337133E-08  0.4841283053E-05 -0.5382465736E-05  0.9960000000E+00  0.2608195422E-02 -0.1144455383E-05 -0.1880877309E-05  0.1015255783E-03  0.2606219380E-02  0.0000000000E+00  0.0000000000E+00 -0.4160337133E-08  0.4841283053E-05 -0.5382465736E-05  0.0000000000E+00  0.0000000000E+00  0.0000000000E+00  0.2608195422E-02 -0.1144455383E-05 -0.1880877309E-05  0.0000000000E+00  0.0000000000E+00  0.0000000000E+00
9  0.8190462390E-01  0.1741557373E+01  0.3592220034E-03  0.6913673054E-01  0.1877256634E+02  0.1141773385E-03  0.2932790789E-02 -0.4868720364E-08  0.5629946650E-05 -0.6394357528E-05  0.1038000000E+01  0.2935011669E-02 -0.1351245577E-05 -0.2186371984E-05  0.1141773385E-03  0.2932790789E-02  0.0000000000E+00  0.0000000000E+00 -0.4868720364E-08  0.5629946650E-05 -0.6394357528E-05  0.0000000000E+00  0.0000000000E+00  0.0000000000E+00  0.2935011669E-02 -0.1351245577E-05 -0.2186371984E-05  0.0000000000E+00  0.0000000000E+00  0.0000000000E+00
10  0.8161851170E-01  0.1735298030E+01  0.4093779417E-03  0.6889385499E-01  0.1870697017E+02  0.1268627918E-03  0.3260674894E-02 -0.5624016579E-08  0.6472522100E-05 -0.7496873921E-05  0.1078000000E+01  0.3263140914E-02 -0.1575117663E-05 -0.2510243417E-05  0.1268627918E-03  0.3260674894E-02  0.0000000000E+00  0.0000000000E+00 -0.5624016579E-08  0.6472522100E-05 -0.7496873921E-05  0.0000000000E+00  0.0000000000E+00  0.0000000000E+00  0.3263140914E-02 -0.1575117663E-05 -0.2510243417E-05  0.0000000000E+00  0.0000000000E+00  0.0000000000E+00
11  0.8136101704E-01  0.1729641342E+01  0.4609248074E-03  0.6867513591E-01  0.1864795801E+02  0.1395963496E-03  0.3590255746E-02 -0.6427979990E-08  0.7372684757E-05 -0.8695145180E-05  0.1116000000E+01  0.3592967482E-02 -0.1817141734E-05 -0.2853317699E-05  0.1395963496E-03  0.3590255746E-02  0.0000000000E+00  0.0000000000E+00 -0.6427979990E-08  0.7372684757E-05 -0.8695145180E-05  0.0000000000E+00  0.0000000000E+00  0.0000000000E+00  0.3592967482E-02 -0.1817141734E-05 -0.2853317699E-05  0.0000000000E+00  0.0000000000E+00  0.0000000000E+00
12  0.8112923866E-01  0.1724525331E+01  0.5139279609E-03  0.6847812353E-01  0.1859485889E+02  0.1523928083E-03  0.3921932652E-02 -0.7282073203E-08  0.8335311116E-05 -0.9994280385E-05  0.1161000000E+01  0.3924890947E-02 -0.2078327260E-05 -0.3216641106E-05  0.1523928083E-03  0.3921932652E-02  0.0000000000E+00  0.0000000000E+00 -0.7282073203E-08  0.8335311116E-05 -0.9994280385E-05  0.0000000000E+00  0.0000000000E+00  0.0000000000E+00  0.3924890947E-02 -0.2078327260E-05 -0.3216641106E-05  0.0000000000E+00  0.0000000000E+00  0.0000000000E+00
13  0.8092053988E-01  0.1719893656E+01  0.5684533850E-03  0.6830059169E-01  0.1854706355E+02  0.1652677614E-03  0.4256119311E-02 -0.8188065582E-08  0.9363945618E-05 -0.1140000867E-04  0.1200000000E+01  0.4259325305E-02 -0.2359896815E-05 -0.3601033821E-05  0.1652677614E-03  0.4256119311E-02  0.0000000000E+00  0.0000000000E+00 -0.8188065582E-08  0.9363945618E-05 -0.1140000867E-04  0.0000000000E+00  0.0000000000E+00  0.0000000000E+00  0.4259325305E-02 -0.2359896815E-05 -0.3601033821E-05  0.0000000000E+00  0.0000000000E+00  0.0000000000E+00
14  0.8073253518E-01  0.1715695329E+01  0.6245682074E-03  0.6814052695E-01  0.1850402129E+02  0.1782369469E-03  0.4593242742E-02 -0.9147726814E-08  0.1046365193E-04 -0.1291823562E-04  0.1238000000E+01  0.4596697862E-02 -0.2662962993E-05 -0.4007700147E-05  0.1782369469E-03  0.4593242742E-02  0.0000000000E+00  0.0000000000E+00 -0.9147726814E-08  0.1046365193E-04 -0.1291823562E-04  0.0000000000E+00  0.0000000000E+00  0.0000000000E+00  0.4596697862E-02 -0.2662962993E-05 -0.4007700147E-05  0.0000000000E+00  0.0000000000E+00  0.0000000000E+00
15  0.8056307554E-01  0.1711884397E+01  0.6823408487E-03  0.6799611586E-01  0.1846523648E+02  0.1913166767E-03  0.4933742788E-02 -0.1016283849E-07  0.1163919474E-04 -0.1455438403E-04  0.1276000000E+01  0.4937448762E-02 -0.2988696310E-05 -0.4437778836E-05  0.1913166767E-03  0.4933742788E-02  0.0000000000E+00  0.0000000000E+00 -0.1016283849E-07  0.1163919474E-04 -0.1455438403E-04  0.0000000000E+00  0.0000000000E+00  0.0000000000E+00  0.4937448762E-02 -0.2988696310E-05 -0.4437778836E-05  0.0000000000E+00  0.0000000000E+00  0.0000000000E+00
16  0.8041023259E-01  0.1708419603E+01  0.7418411690E-03  0.6786573173E-01  0.1843026476E+02  0.2045240345E-03  0.5278073166E-02 -0.1123510237E-07  0.1289440691E-04 -0.1631552083E-04  0.1307000000E+01  0.5282032042E-02 -0.3338575484E-05 -0.4892187945E-05  0.2045240345E-03  0.5278073166E-02  0.0000000000E+00  0.0000000000E+00 -0.1123510237E-07  0.1289440691E-04 -0.1631552083E-04  0.0000000000E+00  0.0000000000E+00  0.0000000000E+00  0.5282032042E-02 -0.3338575484E-05 -0.4892187945E-05  0.0000000000E+00  0.0000000000E+00  0.0000000000E+00
17  0.8027228246E-01  0.1705264036E+01  0.8031414668E-03  0.6774792130E-01  0.1839870924E+02  0.2178761638E-03  0.5626701146E-02 -0.1236650632E-07  0.1423484337E-04 -0.1820797608E-04  0.1340000000E+01  0.5630915285E-02 -0.3713850898E-05 -0.5372322898E-05  0.2178761638E-03  0.5626701146E-02  0.0000000000E+00  0.0000000000E+00 -0.1236650632E-07  0.1423484337E-04 -0.1820797608E-04  0.0000000000E+00  0.0000000000E+00  0.0000000000E+00  0.5630915285E-02 -0.3713850898E-05 -0.5372322898E-05  0.0000000000E+00  0.0000000000E+00  0.0000000000E+00
18  0.8014768952E-01  0.1702384785E+01  0.8663164894E-03  0.6764139045E-01  0.1837021670E+02  0.2313908967E-03  0.5980105795E-02 -0.1355891382E-07  0.1566508815E-04 -0.2023857722E-04  0.1381000000E+01  0.5984577888E-02 -0.4115993993E-05 -0.5879358703E-05  0.2313908967E-03  0.5980105795E-02  0.0000000000E+00  0.0000000000E+00 -0.1355891382E-07  0.1566508815E-04 -0.2023857722E-04  0.0000000000E+00  0.0000000000E+00  0.0000000000E+00  0.5984577888E-02 -0.4115993993E-05 -0.5879358703E-05  0.0000000000E+00  0.0000000000E+00  0.0000000000E+00
19  0.8003509032E-01  0.1699752593E+01  0.9314432161E-03  0.6754499120E-01  0.1834447378E+02  0.2450863545E-03  0.6338778908E-02 -0.1481432559E-07  0.1719074145E-04 -0.2241438297E-04  0.1414000000E+01  0.6343511979E-02 -0.4546510206E-05 -0.6414686291E-05  0.2450863545E-03  0.6338778908E-02  0.0000000000E+00  0.0000000000E+00 -0.1481432559E-07  0.1719074145E-04 -0.2241438297E-04  0.0000000000E+00  0.0000000000E+00  0.0000000000E+00  0.6343511979E-02 -0.4546510206E-05 -0.6414686291E-05  0.0000000000E+00  0.0000000000E+00  0.0000000000E+00
20  0.7993327815E-01  0.1697341530E+01  0.9986017571E-03  0.6745770830E-01  0.1832120338E+02  0.2589812099E-03  0.6703225502E-02 -0.1613465729E-07  0.1881678441E-04 -0.2474291003E-04  0.1446000000E+01  0.6708222915E-02 -0.5006952530E-05 -0.6979669298E-05  0.2589812099E-03  0.6703225502E-02  0.0000000000E+00  0.0000000000E+00 -0.1613465729E-07  0.1881678441E-04 -0.2474291003E-04  0.0000000000E+00  0.0000000000E+00  0.0000000000E+00  0.6708222915E-02 -0.5006952530E-05 -0.6979669298E-05  0.0000000000E+00  0.0000000000E+00  0.0000000000E+00
21  0.7984118800E-01  0.1695128667E+01  0.1067875167E-02  0.6737864689E-01  0.1830016113E+02  0.2730946127E-03  0.7073962252E-02 -0.1752196578E-07  0.2054845025E-04 -0.2723195583E-04  0.1481000000E+01  0.7079227727E-02 -0.5498980245E-05 -0.7575657441E-05  0.2730946127E-03  0.7073962252E-02  0.0000000000E+00  0.0000000000E+00 -0.1752196578E-07  0.2054845025E-04 -0.2723195583E-04  0.0000000000E+00  0.0000000000E+00  0.0000000000E+00  0.7079227727E-02 -0.5498980245E-05 -0.7575657441E-05  0.0000000000E+00  0.0000000000E+00  0.0000000000E+00
22  0.7975788234E-01  0.1693093775E+01  0.1139349415E-02  0.6730702036E-01  0.1828113210E+02  0.2874461607E-03  0.7451520196E-02 -0.1897815382E-07  0.2239103954E-04 -0.2989014890E-04  0.1513000000E+01  0.7457057813E-02 -0.6024460984E-05 -0.8204121915E-05  0.2874461607E-03  0.7451520196E-02  0.0000000000E+00  0.0000000000E+00 -0.1897815382E-07  0.2239103954E-04 -0.2989014890E-04  0.0000000000E+00  0.0000000000E+00  0.0000000000E+00  0.7457057813E-02 -0.6024460984E-05 -0.8204121915E-05  0.0000000000E+00  0.0000000000E+00  0.0000000000E+00
23  0.7968253761E-01  0.1691219035E+01  0.1213114587E-02  0.6724213906E-01  0.1826392762E+02  0.3020555683E-03  0.7836442703E-02 -0.2050548096E-07  0.2435129581E-04 -0.3272553025E-04  0.1543000000E+01  0.7842256894E-02 -0.6585027865E-05 -0.8866906310E-05  0.3020555683E-03  0.7836442703E-02  0.0000000000E+00  0.0000000000E+00 -0.2050548096E-07  0.2435129581E-04 -0.3272553025E-04  0.0000000000E+00  0.0000000000E+00  0.0000000000E+00  0.7842256894E-02 -0.6585027865E-05 -0.8866906310E-05  0.0000000000E+00  0.0000000000E+00  0.0000000000E+00
24  0.7961443229E-01  0.1689488783E+01  0.1289264184E-02  0.6718339998E-01  0.1824838253E+02  0.3169433612E-03  0.8229285709E-02 -0.2210624730E-07  0.2643464925E-04 -0.3574740923E-04  0.1578000000E+01  0.8235381283E-02 -0.7182695550E-05 -0.9565541751E-05  0.3169433612E-03  0.8229285709E-02  0.0000000000E+00  0.0000000000E+00 -0.2210624730E-07  0.2643464925E-04 -0.3574740923E-04  0.0000000000E+00  0.0000000000E+00  0.0000000000E+00  0.8235381283E-02 -0.7182695550E-05 -0.9565541751E-05  0.0000000000E+00  0.0000000000E+00  0.0000000000E+00
25  0.7955293537E-01  0.1687889266E+01  0.1367895306E-02  0.6713027770E-01  0.1823435248E+02  0.3321303657E-03  0.8630619532E-02 -0.2378249809E-07  0.2864762645E-04 -0.3896534356E-04  0.1604000000E+01  0.8637001677E-02 -0.7819558058E-05 -0.1030182925E-04  0.3321303657E-03  0.8630619532E-02  0.0000000000E+00  0.0000000000E+00 -0.2378249809E-07  0.2864762645E-04 -0.3896534356E-04  0.0000000000E+00  0.0000000000E+00  0.0000000000E+00  0.8637001677E-02 -0.7819558058E-05 -0.1030182925E-04  0.0000000000E+00  0.0000000000E+00  0.0000000000E+00
26  0.7949749564E-01  0.1686408410E+01  0.1449109364E-02  0.6708231469E-01  0.1822171147E+02  0.3476380492E-03  0.9041028570E-02 -0.2553672061E-07  0.3099623574E-04 -0.4238833441E-04  0.1634000000E+01  0.9047702863E-02 -0.8497410401E-05 -0.1107748744E-04  0.3476380492E-03  0.9041028570E-02  0.0000000000E+00  0.0000000000E+00 -0.2553672061E-07  0.3099623574E-04 -0.4238833441E-04  0.0000000000E+00  0.0000000000E+00  0.0000000000E+00  0.9047702863E-02 -0.8497410401E-05 -0.1107748744E-04  0.0000000000E+00  0.0000000000E+00  0.0000000000E+00
27  0.7944763217E-01  0.1685035619E+01  0.1533012017E-02  0.6703911402E-01  0.1821034964E+02  0.3634883139E-03  0.9461112133E-02 -0.2737114913E-07  0.3348705635E-04 -0.4602793764E-04  0.1667000000E+01  0.9468084552E-02 -0.9218830767E-05 -0.1189439177E-04  0.3634883139E-03  0.9461112133E-02  0.0000000000E+00  0.0000000000E+00 -0.2737114913E-07  0.3348705635E-04 -0.4602793764E-04  0.0000000000E+00  0.0000000000E+00  0.0000000000E+00  0.9468084552E-02 -0.9218830767E-05 -0.1189439177E-04  0.0000000000E+00  0.0000000000E+00  0.0000000000E+00
28  0.7940292582E-01  0.1683761593E+01  0.1619713363E-02  0.6700033175E-01  0.1820017128E+02  0.3797032756E-03  0.9891483698E-02 -0.2928821178E-07  0.3612769034E-04 -0.4989418909E-04  0.1701000000E+01  0.9898760612E-02 -0.9985912697E-05 -0.1275476570E-04  0.3797032756E-03  0.9891483698E-02  0.0000000000E+00  0.0000000000E+00 -0.2928821178E-07  0.3612769034E-04 -0.4989418909E-04  0.0000000000E+00  0.0000000000E+00  0.0000000000E+00  0.9898760612E-02 -0.9985912697E-05 -0.1275476570E-04  0.0000000000E+00  0.0000000000E+00  0.0000000000E+00
29  0.7936301130E-01  0.1682578158E+01  0.1709327855E-02  0.6696567027E-01  0.1819109305E+02  0.3963058890E-03  0.1033277304E-01 -0.3129031006E-07  0.3892490882E-04 -0.5399873139E-04  0.1735000000E+01  0.1034036123E-01 -0.1080118792E-04 -0.1366064073E-04  0.3963058890E-03  0.1033277304E-01  0.0000000000E+00  0.0000000000E+00 -0.3129031006E-07  0.3892490882E-04 -0.5399873139E-04  0.0000000000E+00  0.0000000000E+00  0.0000000000E+00  0.1034036123E-01 -0.1080118792E-04 -0.1366064073E-04  0.0000000000E+00  0.0000000000E+00  0.0000000000E+00
30  0.7932757017E-01  0.1681478119E+01  0.1801975114E-02  0.6693487285E-01  0.1818304232E+02  0.4133195582E-03  0.1078562645E-01 -0.3337999392E-07  0.4188628352E-04 -0.5835332366E-04  0.1768000000E+01  0.1079353313E-01 -0.1166718204E-04 -0.1461425458E-04  0.4133195582E-03  0.1078562645E-01  0.0000000000E+00  0.0000000000E+00 -0.3337999392E-07  0.4188628352E-04 -0.5835332366E-04  0.0000000000E+00  0.0000000000E+00  0.0000000000E+00  0.1079353313E-01 -0.1166718204E-04 -0.1461425458E-04  0.0000000000E+00  0.0000000000E+00  0.0000000000E+00
31  0.7929632448E-01  0.1680455121E+01  0.1897779726E-02  0.6690771820E-01  0.1817595573E+02  0.4307685622E-03  0.1125070795E-01 -0.3555982341E-07  0.4501883661E-04 -0.6297004742E-04  0.1803000000E+01  0.1125894076E-01 -0.1258647812E-04 -0.1561767254E-04  0.4307685622E-03  0.1125070795E-01  0.0000000000E+00  0.0000000000E+00 -0.3555982341E-07  0.4501883661E-04 -0.6297004742E-04  0.0000000000E+00  0.0000000000E+00  0.0000000000E+00  0.1125894076E-01 -0.1258647812E-04 -0.1561767254E-04  0.0000000000E+00  0.0000000000E+00  0.0000000000E+00
32  0.7926903165E-01  0.1679503538E+01  0.1996871672E-02  0.6688401628E-01  0.1816977798E+02  0.4486773949E-03  0.1172869932E-01 -0.3783239336E-07  0.4833107354E-04 -0.6786238756E-04  0.1837000000E+01  0.1173726634E-01 -0.1356195534E-04 -0.1667345052E-04  0.4486773949E-03  0.1172869932E-01  0.0000000000E+00  0.0000000000E+00 -0.3783239336E-07  0.4833107354E-04 -0.6786238756E-04  0.0000000000E+00  0.0000000000E+00  0.0000000000E+00  0.1173726634E-01 -0.1356195534E-04 -0.1667345052E-04  0.0000000000E+00  0.0000000000E+00  0.0000000000E+00
33  0.7924547946E-01  0.1678618371E+01  0.2099386440E-02  0.6686360401E-01  0.1816446073E+02  0.4670712157E-03  0.1222030008E-01 -0.4020064776E-07  0.5183195651E-04 -0.7304608171E-04  0.1869000000E+01  0.1222920984E-01 -0.1459660784E-04 -0.1778418179E-04  0.4670712157E-03  0.1222030008E-01  0.0000000000E+00  0.0000000000E+00 -0.4020064776E-07  0.5183195651E-04 -0.7304608171E-04  0.0000000000E+00  0.0000000000E+00  0.0000000000E+00  0.1222920984E-01 -0.1459660784E-04 -0.1778418179E-04  0.0000000000E+00  0.0000000000E+00  0.0000000000E+00
34  0.7922548272E-01  0.1677795173E+01  0.2205465427E-02  0.6684634249E-01  0.1815996181E+02  0.4859756317E-03  0.1272622111E-01 -0.4266701114E-07  0.5552816381E-04 -0.7854190843E-04  0.1901000000E+01  0.1273548260E-01 -0.1569349818E-04 -0.1895246365E-04  0.4859756317E-03  0.1272622111E-01  0.0000000000E+00  0.0000000000E+00 -0.4266701114E-07  0.5552816381E-04 -0.7854190843E-04  0.0000000000E+00  0.0000000000E+00  0.0000000000E+00  0.1273548260E-01 -0.1569349818E-04 -0.1895246365E-04  0.0000000000E+00  0.0000000000E+00  0.0000000000E+00
35  0.7920887726E-01  0.1677029919E+01  0.2315259246E-02  0.6683211172E-01  0.1815624382E+02  0.5054174635E-03  0.1324720490E-01 -0.4523449433E-07  0.5942774740E-04 -0.8436509883E-04  0.1936000000E+01  0.1325682757E-01 -0.1685583013E-04 -0.2018093252E-04  0.5054174635E-03  0.1324720490E-01  0.0000000000E+00  0.0000000000E+00 -0.4523449433E-07  0.5942774740E-04 -0.8436509883E-04  0.0000000000E+00  0.0000000000E+00  0.0000000000E+00  0.1325682757E-01 -0.1685583013E-04 -0.2018093252E-04  0.0000000000E+00  0.0000000000E+00  0.0000000000E+00
36  0.7919551667E-01  0.1676318939E+01  0.2428921359E-02  0.6682080917E-01  0.1815327344E+02  0.5254238897E-03  0.1378401496E-01 -0.4790566317E-07  0.6354770345E-04 -0.9053153905E-04  0.1969000000E+01  0.1379400876E-01 -0.1808700224E-04 -0.2147270257E-04  0.5254238897E-03  0.1378401496E-01  0.0000000000E+00  0.0000000000E+00 -0.4790566317E-07  0.6354770345E-04 -0.9053153905E-04  0.0000000000E+00  0.0000000000E+00  0.0000000000E+00  0.1379400876E-01 -0.1808700224E-04 -0.2147270257E-04  0.0000000000E+00  0.0000000000E+00  0.0000000000E+00
37  0.7918527111E-01  0.1675658891E+01  0.2546611290E-02  0.6681234926E-01  0.1815102109E+02  0.5460229443E-03  0.1433743281E-01 -0.5068374448E-07  0.6788929975E-04 -0.9705055049E-04  0.2001000000E+01  0.1434780817E-01 -0.1939055681E-04 -0.2283074512E-04  0.5460229443E-03  0.1433743281E-01  0.0000000000E+00  0.0000000000E+00 -0.5068374448E-07  0.6788929975E-04 -0.9705055049E-04  0.0000000000E+00  0.0000000000E+00  0.0000000000E+00  0.1434780817E-01 -0.1939055681E-04 -0.2283074512E-04  0.0000000000E+00  0.0000000000E+00  0.0000000000E+00
38  0.7917801847E-01  0.1675046569E+01  0.2668496688E-02  0.6680665324E-01  0.1814945897E+02  0.5672436787E-03  0.1490826861E-01 -0.5357167850E-07  0.7246490640E-04 -0.1039350577E-03  0.2034000000E+01  0.1491903649E-01 -0.2077020966E-04 -0.2425815191E-04  0.5672436787E-03  0.1490826861E-01  0.0000000000E+00  0.0000000000E+00 -0.5357167850E-07  0.7246490640E-04 -0.1039350577E-03  0.0000000000E+00  0.0000000000E+00  0.0000000000E+00  0.1491903649E-01 -0.2077020966E-04 -0.2425815191E-04  0.0000000000E+00  0.0000000000E+00  0.0000000000E+00
39  0.7917364877E-01  0.1674479002E+01  0.2794753106E-02  0.6680365710E-01  0.1814856204E+02  0.5891154729E-03  0.1549734534E-01 -0.5657259178E-07  0.7728458010E-04 -0.1112147070E-03  0.2067000000E+01  0.1550851721E-01 -0.2222980836E-04 -0.2575819380E-04  0.5891154729E-03  0.1549734534E-01  0.0000000000E+00  0.0000000000E+00 -0.5657259178E-07  0.7728458010E-04 -0.1112147070E-03  0.0000000000E+00  0.0000000000E+00  0.0000000000E+00  0.1550851721E-01 -0.2222980836E-04 -0.2575819380E-04  0.0000000000E+00  0.0000000000E+00  0.0000000000E+00
40  0.7917207104E-01  0.1673953589E+01  0.2925566429E-02  0.6680331366E-01  0.1814830960E+02  0.6116687496E-03  0.1610552352E-01 -0.5968944228E-07  0.8235261288E-04 -0.1189143574E-03  0.2100000000E+01  0.1611711138E-01 -0.2377370782E-04 -0.2733458850E-04  0.6116687496E-03  0.1610552352E-01  0.0000000000E+00  0.0000000000E+00 -0.5968944228E-07  0.8235261288E-04 -0.1189143574E-03  0.0000000000E+00  0.0000000000E+00  0.0000000000E+00  0.1611711138E-01 -0.2377370782E-04 -0.2733458850E-04  0.0000000000E+00  0.0000000000E+00  0.0000000000E+00
41  0.7917319182E-01  0.1673467651E+01  0.3061128427E-02  0.6680557339E-01  0.1814868037E+02  0.6349351915E-03  0.1673369042E-01 -0.6292559389E-07  0.8769612716E-04 -0.1270392756E-03  0.2135000000E+01  0.1674570684E-01 -0.2540574704E-04 -0.2899085538E-04  0.6349351915E-03  0.1673369042E-01  0.0000000000E+00  0.0000000000E+00 -0.6292559389E-07  0.8769612716E-04 -0.1270392756E-03  0.0000000000E+00  0.0000000000E+00  0.0000000000E+00  0.1674570684E-01 -0.2540574704E-04 -0.2899085538E-04  0.0000000000E+00  0.0000000000E+00  0.0000000000E+00
42  0.7917690959E-01  0.1673018307E+01  0.3201640374E-02  0.6681039164E-01  0.1814965125E+02  0.6589476169E-03  0.1738276373E-01 -0.6628432790E-07  0.9328367644E-04 -0.1356171949E-03  0.2166000000E+01  0.1739522183E-01 -0.2713068977E-04 -0.3073058403E-04  0.6589476169E-03  0.1738276373E-01  0.0000000000E+00  0.0000000000E+00 -0.6628432790E-07  0.9328367644E-04 -0.1356171949E-03  0.0000000000E+00  0.0000000000E+00  0.0000000000E+00  0.1739522183E-01 -0.2713068977E-04 -0.3073058403E-04  0.0000000000E+00  0.0000000000E+00  0.0000000000E+00
43  0.7918314226E-01  0.1672603054E+01  0.3347310768E-02  0.6681773165E-01  0.1815120354E+02  0.6837393976E-03  0.1805369424E-01 -0.6976908743E-07  0.9917586227E-04 -0.1446480106E-03  0.2197000000E+01  0.1806660774E-01 -0.2895315939E-04 -0.3255812470E-04  0.6837393976E-03  0.1805369424E-01  0.0000000000E+00  0.0000000000E+00 -0.6976908743E-07  0.9917586227E-04 -0.1446480106E-03  0.0000000000E+00  0.0000000000E+00  0.0000000000E+00  0.1806660774E-01 -0.2895315939E-04 -0.3255812470E-04  0.0000000000E+00  0.0000000000E+00  0.0000000000E+00
44  0.7919180959E-01  0.1672219399E+01  0.3498363456E-02  0.6682756969E-01  0.1815331900E+02  0.7093463547E-03  0.1874748830E-01 -0.7338332983E-07  0.1053745477E-03 -0.1542274262E-03  0.2226000000E+01  0.1876087154E-01 -0.3087809722E-04 -0.3447758227E-04  0.7093463547E-03  0.1874748830E-01  0.0000000000E+00  0.0000000000E+00 -0.7338332983E-07  0.1053745477E-03 -0.1542274262E-03  0.0000000000E+00  0.0000000000E+00  0.0000000000E+00  0.1876087154E-01 -0.3087809722E-04 -0.3447758227E-04  0.0000000000E+00  0.0000000000E+00  0.0000000000E+00
45  0.7920285644E-01  0.1671865354E+01  0.3655012828E-02  0.6683990526E-01  0.1815598505E+02  0.7358064986E-03  0.1946521278E-01 -0.7713018055E-07  0.1119188036E-03 -0.1643143847E-03  0.2255000000E+01  0.1947908078E-01 -0.3291074698E-04 -0.3649327345E-04  0.7358064986E-03  0.1946521278E-01  0.0000000000E+00  0.0000000000E+00 -0.7713018055E-07  0.1119188036E-03 -0.1643143847E-03  0.0000000000E+00  0.0000000000E+00  0.0000000000E+00  0.1947908078E-01 -0.3291074698E-04 -0.3649327345E-04  0.0000000000E+00  0.0000000000E+00  0.0000000000E+00
46  0.7921624382E-01  0.1671539246E+01  0.3817498302E-02  0.6685475424E-01  0.1815919271E+02  0.7631578653E-03  0.2020793766E-01 -0.8101328636E-07  0.1188219128E-03 -0.1749148364E-03  0.2284000000E+01  0.2022230609E-01 -0.3505637068E-04 -0.3860961286E-04  0.7631578653E-03  0.2020793766E-01  0.0000000000E+00  0.0000000000E+00 -0.8101328636E-07  0.1188219128E-03 -0.1749148364E-03  0.0000000000E+00  0.0000000000E+00  0.0000000000E+00  0.2022230609E-01 -0.3505637068E-04 -0.3860961286E-04  0.0000000000E+00  0.0000000000E+00  0.0000000000E+00
47  0.7923188291E-01  0.1671238293E+01  0.3986061864E-02  0.6687209630E-01  0.1816292173E+02  0.7914399635E-03  0.2097678917E-01 -0.8503651966E-07  0.1260902268E-03 -0.1861106035E-03  0.2315000000E+01  0.2099167440E-01 -0.3732066371E-04 -0.4083177350E-04  0.7914399635E-03  0.2097678917E-01  0.0000000000E+00  0.0000000000E+00 -0.8503651966E-07  0.1260902268E-03 -0.1861106035E-03  0.0000000000E+00  0.0000000000E+00  0.0000000000E+00  0.2099167440E-01 -0.3732066371E-04 -0.4083177350E-04  0.0000000000E+00  0.0000000000E+00  0.0000000000E+00
48  0.7924976076E-01  0.1670961296E+01  0.4160964133E-02  0.6689197909E-01  0.1816716911E+02  0.8206946935E-03  0.2177294647E-01 -0.8920343437E-07  0.1337175282E-03 -0.1978973898E-03  0.2346000000E+01  0.2178836558E-01 -0.3970960617E-04 -0.4316463730E-04  0.8206946935E-03  0.2177294647E-01  0.0000000000E+00  0.0000000000E+00 -0.8920343437E-07  0.1337175282E-03 -0.1978973898E-03  0.0000000000E+00  0.0000000000E+00  0.0000000000E+00  0.2178836558E-01 -0.3970960617E-04 -0.4316463730E-04  0.0000000000E+00  0.0000000000E+00  0.0000000000E+00
49  0.7926983357E-01  0.1670706368E+01  0.4342465022E-02  0.6691442486E-01  0.1817192483E+02  0.8509641555E-03  0.2259760570E-01 -0.9351778249E-07  0.1417135808E-03 -0.2102986720E-03  0.2378000000E+01  0.2261357652E-01 -0.4222940474E-04 -0.4561355917E-04  0.8509641555E-03  0.2259760570E-01  0.0000000000E+00  0.0000000000E+00 -0.9351778249E-07  0.1417135808E-03 -0.2102986720E-03  0.0000000000E+00  0.0000000000E+00  0.0000000000E+00  0.2261357652E-01 -0.4222940474E-04 -0.4561355917E-04  0.0000000000E+00  0.0000000000E+00  0.0000000000E+00
50  0.7929203878E-01  0.1670471166E+01  0.4530850639E-02  0.6693944582E-01  0.1817717464E+02  0.8822909804E-03  0.2345198183E-01 -0.9798335003E-07  0.1501202575E-03 -0.2233533999E-03  0.2410000000E+01  0.2346852291E-01 -0.4488658282E-04 -0.4818411127E-04  0.8822909804E-03  0.2345198183E-01  0.0000000000E+00  0.0000000000E+00 -0.9798335003E-07  0.1501202575E-03 -0.2233533999E-03  0.0000000000E+00  0.0000000000E+00  0.0000000000E+00  0.2346852291E-01 -0.4488658282E-04 -0.4818411127E-04  0.0000000000E+00  0.0000000000E+00  0.0000000000E+00
51  0.7931622516E-01  0.1670251398E+01  0.4726411612E-02  0.6696699342E-01  0.1818288419E+02  0.9147144978E-03  0.2433720739E-01 -0.1026042386E-06  0.1589617432E-03 -0.2371010900E-03  0.2441000000E+01  0.2435433795E-01 -0.4768796821E-04 -0.5088189456E-04  0.9147144978E-03  0.2433720739E-01  0.0000000000E+00  0.0000000000E+00 -0.1026042386E-06  0.1589617432E-03 -0.2371010900E-03  0.0000000000E+00  0.0000000000E+00  0.0000000000E+00  0.2435433795E-01 -0.4768796821E-04 -0.5088189456E-04  0.0000000000E+00  0.0000000000E+00  0.0000000000E+00
52  0.7934197120E-01  0.1670036919E+01  0.4929450251E-02  0.6699678654E-01  0.1818895799E+02  0.9482788956E-03  0.2525455020E-01 -0.1073844627E-06  0.1682337159E-03 -0.2515727154E-03  0.2475000000E+01  0.2527229023E-01 -0.5064062633E-04 -0.5371302107E-04  0.9482788956E-03  0.2525455020E-01  0.0000000000E+00  0.0000000000E+00 -0.1073844627E-06  0.1682337159E-03 -0.2515727154E-03  0.0000000000E+00  0.0000000000E+00  0.0000000000E+00  0.2527229023E-01 -0.5064062633E-04 -0.5371302107E-04  0.0000000000E+00  0.0000000000E+00  0.0000000000E+00
53  0.7936905331E-01  0.1669821772E+01  0.5140290020E-02  0.6702872365E-01  0.1819534538E+02  0.9830351189E-03  0.2620546153E-01 -0.1123280480E-06  0.1779681456E-03 -0.2667840156E-03  0.2503000000E+01  0.2622383189E-01 -0.5375188496E-04 -0.5668412235E-04  0.9830351189E-03  0.2620546153E-01  0.0000000000E+00  0.0000000000E+00 -0.1123280480E-06  0.1779681456E-03 -0.2667840156E-03  0.0000000000E+00  0.0000000000E+00  0.0000000000E+00  0.2622383189E-01 -0.5375188496E-04 -0.5668412235E-04  0.0000000000E+00  0.0000000000E+00  0.0000000000E+00
54  0.7939745084E-01  0.1669604309E+01  0.5359267632E-02  0.6706288335E-01  0.1820204167E+02  0.1019037621E-02  0.2719148107E-01 -0.1174391395E-06  0.1881920163E-03 -0.2828106240E-03  0.2534000000E+01  0.2721050356E-01 -0.5702986921E-04 -0.5980183168E-04  0.1019037621E-02  0.2719148107E-01  0.0000000000E+00  0.0000000000E+00 -0.1174391395E-06  0.1881920163E-03 -0.2828106240E-03  0.0000000000E+00  0.0000000000E+00  0.0000000000E+00  0.2721050356E-01 -0.5702986921E-04 -0.5980183168E-04  0.0000000000E+00  0.0000000000E+00  0.0000000000E+00