title="tecplot geometry and solution file"
variables=x y z rho u v w p
zone t="processor 6", solutiontime= 0.1800000E+04, strandid=0, n=2756, e=12361, f=feblock, et=tetrahedron
 -0.868326190181E+00 -0.868326190181E+00 -0.868326190181E+00 -0.868326190181E+00 -0.868326190181E+00 -0.770042698289E+00 -0.868326190181E+00
 -0.766877476616E+00 -0.868326190181E+00 -0.777284796055E+00 -0.786361391509E+00 -0.868326190181E+00 -0.868326190181E+00 -0.806574550792E+00
 -0.868326190181E+00 -0.868326190181E+00 -0.801541572845E+00 -0.805592807416E+00 -0.717402812059E+00 -0.659610579131E+00 -0.660912813537E+00
 -0.658101182937E+00 -0.705902110304E+00 -0.717184729635E+00 -0.868326190181E+00 -0.868326190181E+00 -0.683207920953E+00 -0.868326190181E+00
 -0.811332644865E+00 -0.790064378967E+00 -0.651584476497E+00 -0.800825863244E+00 -0.691711257245E+00 -0.868326190181E+00 -0.814479382991E+00
 -0.734283820804E+00 -0.793196721915E+00 -0.868326190181E+00 -0.868326190181E+00 -0.868326190181E+00 -0.783461140447E+00 -0.868326190181E+00
 -0.868326190181E+00 -0.868326190181E+00 -0.868326190181E+00 -0.868326190181E+00 -0.692862113526E+00 -0.810042976926E+00 -0.789480574303E+00
 -0.736405703244E+00 -0.798930614889E+00 -0.796123181352E+00 -0.744017002933E+00 -0.741454651965E+00 -0.809778067940E+00 -0.662269776148E+00
 -0.684552891754E+00 -0.603577544054E+00 -0.610058524047E+00 -0.549473938200E+00 -0.569391466104E+00 -0.471086720127E+00 -0.560888155037E+00
 -0.566578010403E+00 -0.601682224613E+00 -0.657899573892E+00 -0.649604425139E+00 -0.645090420136E+00 -0.805758617669E+00 -0.722356291614E+00
 -0.868326190181E+00 -0.868326190181E+00 -0.470543433618E+00 -0.868326190181E+00 -0.868326190181E+00 -0.868326190181E+00 -0.735129132265E+00
 -0.688405943983E+00 -0.796903452373E+00 -0.798848785761E+00 -0.447380709487E+00 -0.405097033242E+00 -0.542826969738E+00 -0.868326190181E+00
 -0.606143798454E+00 -0.868326190181E+00 -0.788147742955E+00 -0.689586925820E+00 -0.730845148925E+00 -0.868326190181E+00 -0.813009874916E+00
 -0.868326190181E+00 -0.868326190181E+00 -0.868326190181E+00 -0.775829598678E+00 -0.868326190181E+00 -0.868326190181E+00 -0.809358976776E+00
 -0.868326190181E+00 -0.868326190181E+00 -0.868326190181E+00 -0.815498950874E+00 -0.868326190181E+00 -0.868326190181E+00 -0.807097770213E+00
 -0.716411245476E+00 -0.750736577356E+00 -0.787925246643E+00 -0.731241842970E+00 -0.725434370214E+00 -0.868326190181E+00 -0.868326190181E+00
 -0.793284515868E+00 -0.744494506270E+00 -0.809039206185E+00 -0.738771177184E+00 -0.868326190181E+00 -0.805378006750E+00 -0.560291876754E+00
 -0.634616651655E+00 -0.606038653827E+00 -0.669609421988E+00 -0.486859210226E+00 -0.706122349726E+00 -0.637892585136E+00 -0.466414709591E+00
 -0.352238813040E+00 -0.459364447084E+00 -0.287592639114E+00 -0.448700118383E+00 -0.455299770916E+00 -0.547182697595E+00 -0.442686770746E+00
 -0.575241410119E+00 -0.647501888877E+00 -0.521129789347E+00 -0.666331221340E+00 -0.589054742621E+00 -0.679453867497E+00 -0.621569660732E+00
 -0.868326190181E+00 -0.799752379437E+00 -0.798302409502E+00 -0.740106913192E+00 -0.868326190181E+00 -0.868326190181E+00 -0.868326190181E+00
 -0.868326190181E+00 -0.868326190181E+00 -0.777085484252E+00 -0.868326190181E+00 -0.740379113043E+00 -0.705171925891E+00 -0.721004339720E+00
 -0.624512701852E+00 -0.868326190181E+00 -0.792664556093E+00 -0.803301090180E+00 -0.380167902768E+00 -0.338998051060E+00 -0.573587075963E+00
 -0.390199268621E+00 -0.263145435141E+00 -0.424219662110E+00 -0.551820460713E+00 -0.522381655556E+00 -0.642083912542E+00 -0.868326190181E+00
 -0.868326190181E+00 -0.868326190181E+00 -0.808027134888E+00 -0.738654385485E+00 -0.716461451118E+00 -0.667068363179E+00 -0.620309231681E+00
 -0.672899672249E+00 -0.733214126272E+00 -0.784543844064E+00 -0.868326190181E+00 -0.868326190181E+00 -0.868326190181E+00 -0.806599032287E+00
 -0.736952170719E+00 -0.868326190181E+00 -0.868326190181E+00 -0.868326190181E+00 -0.812259952018E+00 -0.754919670259E+00 -0.868326190181E+00
 -0.807312632090E+00 -0.868326190181E+00 -0.868326190181E+00 -0.801814005021E+00 -0.778658074217E+00 -0.868326190181E+00 -0.868326190181E+00
 -0.766791070810E+00 -0.738317336698E+00 -0.804501626548E+00 -0.652629510181E+00 -0.868326190181E+00 -0.868326190181E+00 -0.746883252079E+00
 -0.813182119614E+00 -0.868326190181E+00 -0.868326190181E+00 -0.463031526208E+00 -0.542617163101E+00 -0.603059219483E+00 -0.577310376038E+00
 -0.684700259938E+00 -0.650355490954E+00 -0.413004964820E+00 -0.269574314611E+00 -0.394989442533E+00 -0.466620619770E+00 -0.368872710213E+00
 -0.260168903600E+00 -0.205601247927E+00 -0.380404415195E+00 -0.577004216481E+00 -0.505050087775E+00 -0.569651513074E+00 -0.660748736654E+00
 -0.521836664866E+00 -0.620619155673E+00 -0.577385381993E+00 -0.716950607413E+00 -0.670672450853E+00 -0.661915397262E+00 -0.568788050205E+00
 -0.868326190181E+00 -0.868326190181E+00 -0.813769976859E+00 -0.787184694447E+00 -0.792922172262E+00 -0.715002507628E+00 -0.868326190181E+00
 -0.868326190181E+00 -0.783925443884E+00 -0.868326190181E+00 -0.685612754848E+00 -0.861527383900E+00 -0.868326190181E+00 -0.757463324706E+00
 -0.868326190181E+00 -0.677188662035E+00 -0.702288506342E+00 -0.762137246350E+00 -0.729257909716E+00 -0.646873433290E+00 -0.594593532169E+00
 -0.868326190181E+00 -0.868326190181E+00 -0.817768150365E+00 -0.794248070517E+00 -0.868326190181E+00 -0.742804724620E+00 -0.810663600863E+00
 -0.473649694800E+00 -0.259393540407E+00 -0.398158864860E+00 -0.495912598451E+00 -0.195719736949E+00 -0.365301744715E+00 -0.657322378016E-01
 -0.258529980528E+00 -0.465291170201E+00 -0.569103454625E+00 -0.647641364590E+00 -0.503871461504E+00 -0.463943012808E+00 -0.568474164811E+00
 -0.868326190181E+00 -0.804270560243E+00 -0.771236943527E+00 -0.697913002012E+00 -0.752364227145E+00 -0.667471211956E+00 -0.643532880432E+00
 -0.648219882942E+00 -0.551161775783E+00 -0.731293655089E+00 -0.740758640315E+00 -0.806624786649E+00 -0.815583061795E+00 -0.868326190181E+00
 -0.868326190181E+00 -0.868326190181E+00 -0.808541482642E+00 -0.668176618463E+00 -0.752705336974E+00 -0.717801250464E+00 -0.868326190181E+00
 -0.868326190181E+00 -0.868326190181E+00 -0.868326190181E+00 -0.808986526412E+00 -0.750234597947E+00 -0.805627245547E+00 -0.808568714606E+00
 -0.802478465812E+00 -0.733428636400E+00 -0.868326190181E+00 -0.566841052677E+00 -0.629965203593E+00 -0.808353721064E+00 -0.868326190181E+00
 -0.868326190181E+00 -0.594248557181E+00 -0.533986133495E+00 -0.621171995459E+00 -0.616557284726E+00 -0.421269695110E+00 -0.300153023451E+00
 -0.347660786139E+00 -0.438997807747E+00 -0.503497998040E+00 -0.455022223398E+00 -0.344213866097E+00 -0.342107132675E+00 -0.149699398936E+00
 -0.543966680483E+00 -0.701506378581E+00 -0.614908674075E+00 -0.681316909399E+00 -0.594486144445E+00 -0.553528209122E+00 -0.517140139604E+00
 -0.689418339244E+00 -0.665812900806E+00 -0.748647072557E+00 -0.687729794838E+00 -0.633015252111E+00 -0.868326190181E+00 -0.805409086492E+00
 -0.868326190181E+00 -0.806996324697E+00 -0.678938399540E+00 -0.753534691022E+00 -0.735632971929E+00 -0.868326190181E+00 -0.868326190181E+00
 -0.812870306671E+00 -0.681434975254E+00 -0.739514681401E+00 -0.786195033741E+00 -0.868326190181E+00 -0.625711443553E+00 -0.636014275081E+00
 -0.930933973733E+00 -0.741421541686E+00 -0.868326190181E+00 -0.868326190181E+00 -0.753579494955E+00 -0.868326190181E+00 -0.868326190181E+00
 -0.742826105652E+00 -0.683718014888E+00 -0.734934228232E+00 -0.661042905041E+00 -0.577341293259E+00 -0.868326190181E+00 -0.868326190181E+00
 -0.803241778251E+00 -0.868326190181E+00 -0.803597432476E+00 -0.868326190181E+00 -0.868326190181E+00 -0.747525030594E+00 -0.817847548245E+00
 -0.504687836187E+00 -0.436537010599E-01 -0.350969326629E+00 -0.201387135451E+00 -0.347906193893E+00 -0.541249975022E+00 -0.557968666422E+00
 -0.170879652645E-01 -0.416215052547E+00 -0.326900850419E+00 -0.222007972117E+00 -0.472100418741E+00 -0.612520899784E+00 -0.510423691598E+00
 -0.651067381611E+00 -0.681408689038E+00 -0.523825836308E+00 -0.427427186830E+00 -0.601384486404E+00 -0.425412268727E+00 -0.528554745986E+00
 -0.623702375361E+00 -0.815170663150E+00 -0.742967255383E+00 -0.812614898744E+00 -0.705783850437E+00 -0.659967879079E+00 -0.688701689839E+00
 -0.739295996727E+00 -0.663309894233E+00 -0.590106616267E+00 -0.461345221245E+00 -0.791913584220E+00 -0.764763673411E+00 -0.868326190181E+00
 -0.868326190181E+00 -0.868326190181E+00 -0.868326190181E+00 -0.868326190181E+00 -0.868326190181E+00 -0.814326563114E+00 -0.814459436862E+00
 -0.749064907446E+00 -0.802721871619E+00 -0.677625948733E+00 -0.868326190181E+00 -0.868326190181E+00 -0.868326190181E+00 -0.868326190181E+00
 -0.807312578543E+00 -0.816704827364E+00 -0.786234039398E+00 -0.868326190181E+00 -0.812884105272E+00 -0.655721560964E+00 -0.806522473602E+00
 -0.811137817442E+00 -0.728620859700E+00 -0.756195097434E+00 -0.746355445506E+00 -0.580676332636E+00 -0.600647643082E+00 -0.815137502275E+00
 -0.868326190181E+00 -0.868326190181E+00 -0.635226186607E+00 -0.507368497264E+00 -0.683639741850E+00 -0.651084627308E+00 -0.426436528606E+00
 -0.506783227555E+00 -0.423153445301E+00 -0.406143744534E+00 -0.207450859548E+00 -0.274232330459E+00 -0.339440075928E+00 -0.384192676127E+00
 -0.589165145204E+00 -0.516250029290E+00 -0.322238577987E+00 -0.261057392352E+00 -0.385101394604E+00  0.965281206666E-01 -0.357202841311E-01
 -0.119763153471E+00 -0.598061977392E+00 -0.549281624748E+00 -0.683162290027E+00 -0.657902904772E+00 -0.750613555612E+00 -0.752733352530E+00
 -0.528587215208E+00 -0.597871753386E+00 -0.616705165911E+00 -0.511740479208E+00 -0.480251958296E+00 -0.590717523640E+00 -0.754645232580E+00
 -0.812242110378E+00 -0.868326190181E+00 -0.809488832066E+00 -0.818676677181E+00 -0.868326190181E+00 -0.695956023185E+00 -0.751138833434E+00
 -0.868326190181E+00 -0.868326190181E+00 -0.806332047450E+00 -0.746894320959E+00 -0.719753964513E+00 -0.654288691668E+00 -0.782422195111E+00
 -0.868326190181E+00 -0.763002786945E+00 -0.868326190181E+00 -0.868326190181E+00 -0.868326190181E+00 -0.770642814539E+00 -0.868326190181E+00
 -0.868326190181E+00 -0.769192492562E+00 -0.868326190181E+00 -0.795343944234E+00 -0.755129869570E+00 -0.708205136503E+00 -0.638140797839E+00
 -0.600107273413E+00 -0.629415918512E+00 -0.491229716081E+00 -0.798093911534E+00 -0.868326190181E+00 -0.868326190181E+00 -0.808013613900E+00
 -0.868326190181E+00 -0.812402073730E+00 -0.751654371085E+00 -0.868326190181E+00 -0.868326190181E+00 -0.868326190181E+00 -0.868326190181E+00
 -0.816622888069E+00 -0.634272372377E+00 -0.365655092925E+00  0.158181686177E+00 -0.221788636389E+00 -0.114231561512E+00 -0.374161828568E+00
 -0.560269317769E+00  0.371614423275E+00 -0.426078116614E+00 -0.308233942185E+00 -0.345042400303E+00 -0.251826443142E+00 -0.482606706546E+00
 -0.699516467251E+00 -0.611664345046E+00 -0.606027903301E+00 -0.710067552646E+00 -0.505259138517E+00 -0.465426569347E+00 -0.555952112634E+00
 -0.631129240943E+00 -0.461852871750E+00 -0.396316692208E+00 -0.868326190181E+00 -0.868326190181E+00 -0.815414065060E+00 -0.780265660163E+00
 -0.868326190181E+00 -0.779099655318E+00 -0.748014721300E+00 -0.663637082435E+00 -0.700315955437E+00 -0.734513510679E+00 -0.664557871742E+00
 -0.730346432453E+00 -0.583089511472E+00 -0.606865912555E+00 -0.868326190181E+00 -0.868326190181E+00 -0.812489361667E+00 -0.748885863341E+00
 -0.868326190181E+00 -0.868326190181E+00 -0.868326190181E+00 -0.817077100424E+00 -0.868326190181E+00 -0.868326190181E+00 -0.816128014090E+00
 -0.817360324422E+00 -0.755796613451E+00 -0.680424122641E+00 -0.868326190181E+00 -0.868326190181E+00 -0.868326190181E+00 -0.868326190181E+00
 -0.868326190181E+00 -0.805358177629E+00 -0.868326190181E+00 -0.868326190181E+00 -0.560927051792E+00 -0.638761551213E+00 -0.868326190181E+00
 -0.814663607017E+00 -0.814590434070E+00 -0.787095583133E+00 -0.762007653881E+00 -0.791628747232E+00 -0.811545897623E+00 -0.736988495667E+00
 -0.555986652563E+00 -0.625467167559E+00 -0.868326190181E+00 -0.807491743724E+00 -0.868326190181E+00 -0.813929511235E+00 -0.868326190181E+00
 -0.499470967707E+00 -0.700561693076E+00 -0.743359041919E+00 -0.693353972992E+00 -0.780016907083E+00 -0.678078003497E+00 -0.669053276292E+00
 -0.446804772291E+00 -0.564046746418E+00 -0.394502847848E+00 -0.137094382202E+00 -0.255170824391E+00 -0.206504951855E+00 -0.177400222993E+00
 -0.315789271865E+00 -0.325941136724E+00 -0.434473641529E+00 -0.439841437316E+00 -0.354319604297E+00 -0.471999431272E+00 -0.639118639616E+00
 -0.560971645279E+00 -0.282089573294E+00 -0.359776346308E+00 -0.235080652898E+00 -0.347622756899E+00  0.738819408675E-01  0.141109666209E+00
 -0.391877532562E-01 -0.146195721709E+00  0.759465384487E-01 -0.100905054105E+00  0.367757173758E-01 -0.250348546658E+00 -0.142860855402E+00
 -0.606562048128E+00 -0.515355710858E+00 -0.727051843761E+00 -0.708729886698E+00 -0.814009945698E+00 -0.811538316417E+00 -0.788228966588E+00
 -0.816006966029E+00 -0.813617212908E+00 -0.646293128697E+00 -0.649682739596E+00 -0.588931089954E+00 -0.494641794038E+00 -0.518408200121E+00
 -0.568728823625E+00 -0.614392028474E+00 -0.669244625750E+00 -0.703508351835E+00 -0.868326190181E+00 -0.868326190181E+00 -0.868326190181E+00
 -0.868326190181E+00 -0.868326190181E+00 -0.802870806589E+00 -0.805959501802E+00 -0.868326190181E+00 -0.868326190181E+00 -0.868326190181E+00
 -0.803705974578E+00 -0.868326190181E+00 -0.732387384370E+00 -0.868326190181E+00 -0.868326190181E+00 -0.803600329115E+00 -0.868326190181E+00
 -0.791836399662E+00 -0.756017271848E+00 -0.751509362857E+00 -0.868326190181E+00 -0.770853971994E+00 -0.678777043295E+00 -0.754995819378E+00
 -0.608226581040E+00 -0.660136044973E+00 -0.741945532376E+00 -0.651871430212E+00 -0.728339310740E+00 -0.804735973882E+00 -0.522473021180E+00
 -0.410821509443E+00 -0.451666742229E+00 -0.666396228160E+00 -0.545611608303E+00 -0.707849612089E+00 -0.523532843541E+00 -0.868326190181E+00
 -0.868326190181E+00 -0.868326190181E+00 -0.819108048854E+00 -0.811089172055E+00 -0.770148847143E+00 -0.868326190181E+00 -0.868326190181E+00
 -0.809594244983E+00  0.321904380153E+00  0.159772465396E-01 -0.232429538713E+00 -0.167227871757E+00  0.304678279111E+00 -0.445597374696E+00
 -0.325507928857E+00 -0.377634954486E+00 -0.557259002057E+00 -0.680593859093E+00 -0.554933332676E+00 -0.661424690432E+00 -0.758080341679E+00
 -0.745214395912E+00 -0.811773778082E+00 -0.528294154372E+00 -0.457657369608E+00 -0.489650921317E+00 -0.614427968713E+00 -0.714366063135E+00
 -0.619599096558E+00 -0.638778764221E+00 -0.441031242347E+00 -0.868326190181E+00 -0.868326190181E+00 -0.868326190181E+00 -0.806501511156E+00
 -0.868326190181E+00 -0.741786626678E+00 -0.790988423427E+00 -0.675266870006E+00 -0.674077473663E+00 -0.712823087590E+00 -0.747657505519E+00
 -0.792176453020E+00 -0.597195983134E+00 -0.662517874231E+00 -0.868326190181E+00 -0.805528335352E+00 -0.811953522270E+00 -0.744108114108E+00
 -0.868326190181E+00 -0.868326190181E+00 -0.868326190181E+00 -0.828794554636E+00 -0.868326190181E+00 -0.810100598396E+00 -0.868326190181E+00
 -0.780189936447E+00 -0.741933156802E+00 -0.731485726568E+00 -0.646568088667E+00 -0.868326190181E+00 -0.868326190181E+00 -0.812541254234E+00
 -0.868326190181E+00 -0.605774923729E+00 -0.532429222884E+00 -0.656640332827E+00 -0.868326190181E+00 -0.808985890806E+00 -0.868326190181E+00
 -0.868326190181E+00 -0.868326190181E+00 -0.732705381186E+00 -0.575713709180E+00 -0.693979103947E+00 -0.868326190181E+00 -0.868326190181E+00
 -0.820263332387E+00 -0.505262414705E+00 -0.728939560814E+00 -0.812849811329E+00 -0.744892611319E+00 -0.740919000647E+00 -0.868326190181E+00
 -0.810842133628E+00 -0.610335728742E+00 -0.677526008928E+00 -0.583190645380E+00 -0.438094844849E+00 -0.189006416212E+00 -0.262130063115E+00
 -0.221304142147E+00 -0.337781990357E+00 -0.402073195687E+00 -0.370524921430E+00 -0.490799575246E+00 -0.553342984133E+00 -0.494156437918E+00
 -0.377219086525E+00 -0.557580231510E+00 -0.740975363444E+00 -0.659774989722E+00 -0.797531527412E+00 -0.586817840757E+00 -0.594594434213E+00
 -0.391810974029E+00 -0.291988991732E+00 -0.213629855604E+00 -0.281731783039E+00 -0.388923062011E+00 -0.292548765640E+00 -0.474720832856E+00
  0.281195765723E+00 -0.275298413626E-01  0.168140024185E+00  0.165150239360E+00 -0.215668572819E-02 -0.117157094303E+00  0.357660257192E-01
 -0.118568985691E+00  0.112010363137E+00 -0.106233381559E+00  0.847853552171E-01 -0.235804944625E-01 -0.150242774124E+00 -0.263508352322E+00
 -0.605964525141E+00 -0.809391917852E+00 -0.748867174143E+00 -0.868326190181E+00 -0.868326190181E+00 -0.868326190181E+00 -0.868326190181E+00
 -0.819297692184E+00 -0.868326190181E+00 -0.868326190181E+00 -0.673361578149E+00 -0.667065852436E+00 -0.704272226748E+00 -0.645247656250E+00
 -0.483733729701E+00 -0.520093749339E+00 -0.547604478325E+00 -0.609840048282E+00 -0.672800247714E+00 -0.749915910752E+00 -0.735826412487E+00
 -0.776511296320E+00 -0.807784800553E+00 -0.744188026441E+00 -0.813298764303E+00 -0.868326190181E+00 -0.868326190181E+00 -0.868326190181E+00
 -0.868326190181E+00 -0.868326190181E+00 -0.868326190181E+00 -0.868326190181E+00 -0.868326190181E+00 -0.868326190181E+00 -0.818354869671E+00
 -0.808176588558E+00 -0.726102302216E+00 -0.793268434605E+00 -0.804918359486E+00 -0.868326190181E+00 -0.868326190181E+00 -0.868326190181E+00
 -0.759944942220E+00 -0.795732414004E+00 -0.659265154170E+00 -0.567642182916E+00 -0.868326190181E+00 -0.736495184057E+00 -0.602371546526E+00
 -0.426131463571E+00 -0.633656148192E+00 -0.802526392255E+00 -0.710507172652E+00 -0.765168604982E+00 -0.744462371481E+00 -0.807410922460E+00
 -0.868326190181E+00 -0.506170804459E+00 -0.429072952743E+00 -0.238139728038E+00 -0.347098580098E+00 -0.582231445988E+00 -0.736244763619E+00
 -0.715771707591E+00 -0.480245201451E+00 -0.640507273337E+00 -0.710847959719E+00 -0.519691428430E+00 -0.582496385508E+00 -0.557239130054E+00
 -0.439172477784E+00 -0.332143430239E+00 -0.868326190181E+00 -0.868326190181E+00 -0.868326190181E+00 -0.813532899719E+00 -0.809553273075E+00
 -0.868326190181E+00 -0.868326190181E+00 -0.810147176658E+00  0.410210923857E+00 -0.962178662590E-01  0.562937044361E+00  0.311395700681E+00
  0.166218278308E+00 -0.561562145344E+00 -0.673352268161E+00 -0.751625706633E+00 -0.868326190181E+00 -0.603814811512E+00 -0.513400272811E+00
 -0.513936038944E+00 -0.511703529794E+00 -0.594826742341E+00 -0.662088821777E+00 -0.739009886876E+00 -0.676177099301E+00 -0.713077676348E+00
 -0.400823222868E+00 -0.744217575193E+00 -0.868326190181E+00 -0.806404807098E+00 -0.665520534555E+00 -0.679396306080E+00 -0.651886892154E+00
 -0.802857556061E+00 -0.759151309180E+00 -0.868326190181E+00 -0.868326190181E+00 -0.811521972786E+00 -0.816685586654E+00 -0.729133565952E+00
 -0.669548751681E+00 -0.593319290104E+00 -0.868326190181E+00 -0.868326190181E+00 -0.868326190181E+00 -0.868326190181E+00 -0.794576842873E+00
 -0.810813050218E+00 -0.868326190181E+00 -0.868326190181E+00 -0.809763969716E+00 -0.781502351862E+00 -0.740920008159E+00 -0.868326190181E+00
 -0.868326190181E+00 -0.868326190181E+00 -0.577413822214E+00 -0.770643791249E+00 -0.868326190181E+00 -0.868326190181E+00 -0.812374340646E+00
 -0.747156091538E+00 -0.740635584238E+00 -0.807724660916E+00 -0.665767434756E+00 -0.657281643823E+00 -0.749411224289E+00 -0.670664547715E+00
 -0.586033739067E+00 -0.384237526089E+00 -0.535947759452E+00 -0.399947505894E+00 -0.445587038493E+00 -0.514414524654E+00 -0.115559029954E+00
 -0.265931555770E+00 -0.214003785505E+00 -0.358980248332E+00 -0.329402023971E+00 -0.208197445852E+00 -0.341318869653E+00 -0.338225716876E+00
 -0.459479096226E+00 -0.516019300827E+00 -0.618395256572E+00 -0.601798804649E+00 -0.543500240455E+00 -0.440954305840E+00 -0.400937709167E+00
 -0.786515420664E+00 -0.808051764769E+00 -0.704021361636E+00 -0.627368739715E+00 -0.681246403337E+00 -0.868326190181E+00 -0.868326190181E+00
 -0.868326190181E+00 -0.868326190181E+00 -0.868326190181E+00 -0.512000058955E+00 -0.358611407302E+00 -0.472641089361E+00 -0.232968957775E+00
 -0.188224648565E+00 -0.356493595624E+00 -0.288185994322E+00 -0.461396960828E+00 -0.351344085120E+00 -0.594030066825E+00  0.485287305141E+00
 -0.732954688580E-01  0.602320292060E-02  0.260262708153E+00 -0.751860925243E-01  0.134679580842E+00 -0.173721678089E+00 -0.928115043958E-01
  0.834961747607E-01 -0.360066499843E+00 -0.284837606023E+00 -0.292622063951E+00 -0.182552755206E+00 -0.143370377709E+00 -0.117961424404E+00
 -0.241922164210E+00 -0.381239754545E+00 -0.316913467673E+00 -0.868326190181E+00 -0.868326190181E+00 -0.868326190181E+00 -0.804179464709E+00
 -0.735685333041E+00 -0.812413330744E+00 -0.670107751762E+00 -0.743573037680E+00 -0.704890853259E+00 -0.499837112386E+00 -0.588649523681E+00
 -0.644787037086E+00 -0.672021740032E+00 -0.552454685896E+00 -0.611016646300E+00 -0.646518121128E+00 -0.612254829123E+00 -0.681527107722E+00
 -0.751632530984E+00 -0.808568008031E+00 -0.812768551706E+00 -0.793147030137E+00 -0.868326190181E+00 -0.868326190181E+00 -0.811987189855E+00
 -0.750062758023E+00 -0.814317773125E+00 -0.760454155171E+00 -0.792223107625E+00 -0.868326190181E+00 -0.868326190181E+00 -0.868326190181E+00
 -0.868326190181E+00 -0.868326190181E+00 -0.868326190181E+00 -0.868326190181E+00 -0.868326190181E+00 -0.807960926082E+00 -0.810979437776E+00
 -0.810829968084E+00 -0.868326190181E+00 -0.868326190181E+00 -0.868326190181E+00 -0.776319125734E+00 -0.868326190181E+00 -0.773453091513E+00
 -0.803007890395E+00 -0.798677408378E+00 -0.610303481099E+00 -0.586907900682E+00 -0.452816600636E+00 -0.678911066393E+00 -0.638997445995E+00
 -0.666714848909E+00 -0.642669172859E+00 -0.868326190181E+00 -0.792184461008E+00 -0.744695672288E+00 -0.868326190181E+00 -0.868326190181E+00
 -0.812678721754E+00 -0.868326190181E+00 -0.174904284741E+00 -0.444943609869E+00 -0.296541785183E+00 -0.444648776709E+00 -0.532061450024E+00
 -0.747904103558E+00 -0.739882248561E+00 -0.813542087008E+00 -0.736267445047E+00 -0.485086261252E+00 -0.598020254881E+00 -0.445563344796E+00
 -0.714428162773E+00 -0.585114007601E+00 -0.454033062735E+00 -0.616750606509E+00 -0.676445071308E+00 -0.636295186798E+00 -0.543528859603E+00
 -0.568643145371E+00 -0.868326190181E+00  0.774494223590E+00  0.389001031513E+00  0.578528353955E+00  0.301352227958E+00  0.817375433182E+00
  0.496820467800E+00  0.274090022869E-01 -0.683124285166E+00 -0.588033288334E+00 -0.605343897917E+00 -0.551592615947E+00 -0.599932314909E+00
 -0.605325014324E+00 -0.671977253648E+00 -0.756403255220E+00 -0.731468625193E+00 -0.752253135630E+00 -0.814438327306E+00 -0.712128743434E+00
 -0.475162719481E+00 -0.742749424720E+00 -0.807943237556E+00 -0.868326190181E+00 -0.868326190181E+00 -0.741735729908E+00 -0.677595735124E+00
 -0.868326190181E+00 -0.868326190181E+00 -0.868326190181E+00 -0.868326190181E+00 -0.806346828049E+00 -0.742584216033E+00 -0.794262926242E+00
 -0.810918770684E+00 -0.868326190181E+00 -0.868326190181E+00 -0.747870657263E+00 -0.868326190181E+00 -0.868326190181E+00 -0.657811328713E+00
 -0.868326190181E+00 -0.868326190181E+00 -0.737613688391E+00 -0.810112813619E+00 -0.761925232512E+00 -0.810755898828E+00 -0.738733249340E+00
 -0.868326190181E+00 -0.868326190181E+00 -0.753712027150E+00 -0.666428702139E+00 -0.676702397993E+00 -0.580609049296E+00 -0.436115081612E+00
 -0.535951083491E+00 -0.429797353293E+00 -0.522693871925E+00 -0.443220785331E+00 -0.462667457219E+00 -0.630863953983E+00 -0.253230080387E+00
 -0.219655221368E+00 -0.444944793733E+00 -0.222416363556E+00 -0.330963346950E+00 -0.194405274590E+00 -0.456031936522E+00 -0.388543217744E+00
 -0.342016337010E+00 -0.495565797584E+00 -0.613956951896E+00 -0.585021033287E+00 -0.565707942496E+00 -0.682568133731E+00 -0.621522106928E+00
 -0.579168468371E+00 -0.566555308956E+00 -0.484341912233E+00 -0.445006312968E+00 -0.404195571250E+00 -0.868326190181E+00 -0.868326190181E+00
 -0.868326190181E+00 -0.868326190181E+00 -0.868326190181E+00 -0.734773409147E+00 -0.732755066414E+00 -0.868326190181E+00 -0.488269060855E+00
 -0.409708022321E+00 -0.303395912485E+00 -0.376932235737E+00 -0.577392014220E+00 -0.174741277565E+00 -0.211712501800E+00 -0.337673341084E+00
 -0.267919440089E+00 -0.670691477364E+00  0.619070807654E-02 -0.143266873528E+00  0.331207530657E+00 -0.429535126312E-01 -0.140030197800E+00
 -0.712163094652E-01 -0.332991638380E+00 -0.288040102631E+00 -0.739695071517E-01  0.354740286060E+00  0.106543400400E+00 -0.426623351987E+00
 -0.371902325529E+00 -0.259426333248E+00 -0.167564676515E+00 -0.284045760676E+00 -0.240766782197E+00 -0.334184943900E+00 -0.284071321758E+00
 -0.353645124130E+00 -0.399095852320E+00 -0.868326190181E+00 -0.868326190181E+00 -0.809728166430E+00 -0.814969719736E+00 -0.868326190181E+00
 -0.813119643144E+00 -0.536964968143E+00 -0.669738043270E+00 -0.617406453091E+00 -0.690860015869E+00 -0.695140090506E+00 -0.648843926552E+00
 -0.726297930672E+00 -0.668210755464E+00 -0.674211561579E+00 -0.701465113560E+00 -0.687437729349E+00 -0.672392914683E+00 -0.669958810312E+00
 -0.744906681127E+00 -0.695467976109E+00 -0.630894647262E+00 -0.748887274037E+00 -0.810184790200E+00 -0.868326190181E+00 -0.868326190181E+00
 -0.868326190181E+00 -0.868326190181E+00 -0.816746061444E+00 -0.868326190181E+00 -0.868326190181E+00 -0.822523177914E+00 -0.806885797385E+00
 -0.811804315601E+00 -0.804286161242E+00 -0.868326190181E+00 -0.868326190181E+00 -0.868326190181E+00 -0.809702652250E+00 -0.868326190181E+00
 -0.868326190181E+00 -0.868326190181E+00 -0.868326190181E+00 -0.868326190181E+00 -0.868326190181E+00 -0.819767890003E+00 -0.816880670356E+00
 -0.868326190181E+00 -0.868326190181E+00 -0.868326190181E+00 -0.801630411809E+00 -0.868326190181E+00 -0.708030925623E+00 -0.815522500900E+00
 -0.810195216266E+00 -0.868326190181E+00 -0.810129770487E+00 -0.538573664126E+00 -0.592262179375E+00 -0.730519583237E+00 -0.680238896013E+00
 -0.646595432944E+00 -0.674963756646E+00 -0.868326190181E+00 -0.868326190181E+00 -0.259947342479E+00 -0.467227398358E+00 -0.591987804340E+00
 -0.546239506060E+00 -0.809850560455E+00 -0.798470362463E+00 -0.767686382923E+00 -0.814487904643E+00 -0.868326190181E+00 -0.868326190181E+00
 -0.755072011933E+00 -0.754572954208E+00 -0.461176348103E+00 -0.614581163699E+00 -0.499136777008E+00 -0.748618558166E+00 -0.628558338778E+00
 -0.661059310132E+00 -0.698683340510E+00 -0.590662654951E+00  0.598686452680E+00 -0.544415929501E-01 -0.137864747633E+00 -0.675067300504E+00
 -0.746250378584E+00 -0.676925045331E+00 -0.633034560525E+00 -0.587997828458E+00 -0.680935161485E+00 -0.737975492194E+00 -0.809688092362E+00
 -0.807430091476E+00 -0.868326190181E+00 -0.743583957621E+00 -0.510635617108E+00 -0.803352944440E+00 -0.732296025535E+00 -0.812575919300E+00
 -0.778342480600E+00 -0.868326190181E+00 -0.868326190181E+00 -0.868326190181E+00 -0.868326190181E+00 -0.747332169648E+00 -0.814803383672E+00
 -0.868326190181E+00 -0.868326190181E+00 -0.812797478563E+00 -0.868326190181E+00 -0.813700358935E+00 -0.868326190181E+00 -0.868326190181E+00
 -0.868326190181E+00 -0.814754070658E+00 -0.713241469955E+00 -0.748617504071E+00 -0.795809135385E+00 -0.746988433868E+00 -0.664937319516E+00
 -0.646383261301E+00 -0.505768254042E+00 -0.545381721240E+00 -0.606608976280E+00 -0.558940545230E+00 -0.507524655220E+00 -0.466962025107E+00
 -0.518202082513E+00 -0.711617417346E+00 -0.306356432842E+00 -0.308715926367E+00 -0.555128372823E+00 -0.497255547589E+00 -0.327173660819E+00
 -0.180494874854E+00 -0.279576427677E+00 -0.331265720919E+00 -0.422471721687E+00 -0.525846092065E+00 -0.424251650550E+00 -0.313286342663E+00
 -0.395110711186E+00 -0.589649562989E+00 -0.667972133412E+00 -0.672752101672E+00 -0.674598835328E+00 -0.590006987995E+00 -0.645562939064E+00
 -0.544812570455E+00 -0.598025824191E+00 -0.586509164532E+00 -0.661440771462E+00 -0.589917524355E+00 -0.697336763253E+00 -0.434150928532E+00
 -0.471349586609E+00 -0.569178501510E+00 -0.481452850153E+00 -0.461971928588E+00 -0.365067924764E+00 -0.472484893334E+00 -0.777432389938E+00
 -0.666193566612E+00 -0.335770423392E+00 -0.284658415287E+00 -0.740790944305E+00 -0.222240914011E+00 -0.241959836172E+00 -0.158526284811E+00
 -0.283222470673E+00 -0.298361130679E+00 -0.164635610618E+00 -0.470082383870E+00 -0.505157300244E+00 -0.417829379297E+00 -0.306941090411E+00
 -0.401391355772E+00 -0.413313291474E+00 -0.440686537348E+00 -0.430743071223E+00 -0.352647838823E+00 -0.308025555347E+00 -0.422582591233E+00
 -0.493003623534E+00 -0.520090768778E+00 -0.499454501630E+00 -0.868326190181E+00 -0.868326190181E+00 -0.868326190181E+00 -0.868326190181E+00
 -0.637795639760E+00 -0.716823265469E+00 -0.656434562557E+00 -0.783674689237E+00 -0.733578848006E+00 -0.741436810794E+00 -0.800993117293E+00
 -0.738919328550E+00 -0.755145006409E+00 -0.632980736088E+00 -0.746709305050E+00 -0.756692565647E+00 -0.728907621414E+00 -0.727619661606E+00
 -0.818131371786E+00 -0.812578680223E+00 -0.816241881570E+00 -0.812199128640E+00 -0.792451008512E+00 -0.586007208925E+00 -0.676342375991E+00
 -0.814699566748E+00 -0.868326190181E+00 -0.868326190181E+00 -0.868326190181E+00 -0.868326190181E+00 -0.868326190181E+00 -0.868326190181E+00
 -0.868326190181E+00 -0.868326190181E+00 -0.868326190181E+00 -0.868326190181E+00 -0.868326190181E+00 -0.868326190181E+00 -0.868326190181E+00
 -0.868326190181E+00 -0.868326190181E+00 -0.868326190181E+00 -0.868326190181E+00 -0.804984222920E+00 -0.868326190181E+00 -0.681728175828E+00
 -0.719654857670E+00 -0.868326190181E+00 -0.868326190181E+00 -0.868326190181E+00 -0.819007235376E+00 -0.813927112723E+00 -0.569278352646E+00
 -0.736488546257E+00 -0.765276793748E+00 -0.816983521031E+00 -0.775521948778E+00 -0.674404086582E+00 -0.708345339207E+00 -0.651814154914E+00
 -0.680598978303E+00 -0.746472204438E+00 -0.380666842163E+00 -0.574413066915E+00 -0.454560537636E+00 -0.580168897961E+00 -0.592220104284E+00
 -0.868326190181E+00 -0.868326190181E+00 -0.868326190181E+00 -0.868326190181E+00 -0.868326190181E+00 -0.816705553230E+00 -0.781993828059E+00
 -0.811201091701E+00 -0.625057708003E+00 -0.807921321612E+00 -0.745424208896E+00 -0.738717536145E+00 -0.663196920800E+00 -0.104668445660E+00