title="tecplot geometry and solution file"
variables=x y z rho u v w p
zone t="processor 4", solutiontime= 0.1800000E+04, strandid=0, n=2669, e=12144, f=feblock, et=tetrahedron
 -0.868326190181E+00 -0.868326190181E+00 -0.868326190181E+00 -0.868326190181E+00 -0.868326190181E+00 -0.868326190181E+00 -0.813400839364E+00
 -0.868326190181E+00 -0.814280655553E+00 -0.820478843410E+00 -0.868326190181E+00 -0.868326190181E+00 -0.807472238210E+00 -0.868326190181E+00
 -0.868326190181E+00 -0.868326190181E+00 -0.806426123223E+00 -0.754385353091E+00 -0.729593992690E+00 -0.810797014246E+00 -0.868326190181E+00
 -0.868326190181E+00 -0.813987907518E+00 -0.821653425686E+00 -0.763149520144E+00 -0.753102466047E+00 -0.747039876702E+00 -0.743314876619E+00
 -0.805983142751E+00 -0.868326190181E+00 -0.868326190181E+00 -0.805473352175E+00 -0.868326190181E+00 -0.811027057590E+00 -0.756221904238E+00
 -0.741519345282E+00 -0.744170805780E+00 -0.868326190181E+00 -0.868326190181E+00 -0.868326190181E+00 -0.814983130257E+00 -0.738971990457E+00
 -0.749404384258E+00 -0.691667843674E+00 -0.663958249467E+00 -0.629102149411E+00 -0.680680021315E+00 -0.646383795057E+00 -0.815568549841E+00
 -0.769531875908E+00 -0.868326190181E+00 -0.868326190181E+00 -0.804898042224E+00 -0.806971118796E+00 -0.868326190181E+00 -0.753061609682E+00
 -0.701986356152E+00 -0.677921299610E+00 -0.740476569100E+00 -0.697962445869E+00 -0.662535833365E+00 -0.733333229313E+00 -0.717578071463E+00
 -0.733813708333E+00 -0.800090255840E+00 -0.868326190181E+00 -0.868326190181E+00 -0.807461791872E+00 -0.779444689288E+00 -0.728636689557E+00
 -0.868326190181E+00 -0.811830486342E+00 -0.691063404488E+00 -0.704005678678E+00 -0.868326190181E+00 -0.868326190181E+00 -0.868326190181E+00
 -0.684854013249E+00 -0.648430186263E+00 -0.736399771949E+00 -0.627885127839E+00 -0.623992729585E+00 -0.598833481792E+00 -0.522582793820E+00
 -0.576970944793E+00 -0.542809271456E+00 -0.614355288834E+00 -0.516369294811E+00 -0.512776428441E+00 -0.630264962397E+00 -0.532412092261E+00
 -0.868326190181E+00 -0.812966570680E+00 -0.807649939867E+00 -0.868326190181E+00 -0.868326190181E+00 -0.668971902194E+00 -0.753893591491E+00
 -0.809917655931E+00 -0.678176348670E+00 -0.812506206349E+00 -0.692853284011E+00 -0.722886632961E+00 -0.785800797517E+00 -0.868326190181E+00
 -0.868326190181E+00 -0.868326190181E+00 -0.795697181305E+00 -0.805390098679E+00 -0.868326190181E+00 -0.612634800978E+00 -0.629097898654E+00
 -0.744748692826E+00 -0.675669946285E+00 -0.650531799461E+00 -0.736375450518E+00 -0.656271294757E+00 -0.573285185676E+00 -0.658572493056E+00
 -0.747363090566E+00 -0.737195325016E+00 -0.672972735430E+00 -0.748472653073E+00 -0.676287539182E+00 -0.753069000174E+00 -0.810197197917E+00
 -0.868326190181E+00 -0.868326190181E+00 -0.813354211541E+00 -0.795875875176E+00 -0.868326190181E+00 -0.868326190181E+00 -0.813237391120E+00
 -0.790140750252E+00 -0.710885150742E+00 -0.868326190181E+00 -0.597515679914E+00 -0.646052920902E+00 -0.738271096865E+00 -0.675646845165E+00
 -0.614005757263E+00 -0.669448948601E+00 -0.746540539672E+00 -0.868326190181E+00 -0.788152573997E+00 -0.733197534581E+00 -0.545375581959E+00
 -0.490697957146E+00 -0.523043266241E+00 -0.470264180057E+00 -0.409169024201E+00 -0.375178869139E+00 -0.426068207827E+00 -0.501787340909E+00
 -0.506271956708E+00 -0.610720251052E+00 -0.538441665835E+00 -0.387852358282E+00 -0.426127401354E+00 -0.554018011402E+00 -0.419069874094E+00
 -0.455065394734E+00 -0.583514367708E+00 -0.592734653758E+00 -0.501419305305E+00 -0.868326190181E+00 -0.868326190181E+00 -0.868326190181E+00
 -0.809122549735E+00 -0.814723067719E+00 -0.868326190181E+00 -0.813965476618E+00 -0.868326190181E+00 -0.619478833401E+00 -0.620538642419E+00
 -0.730902462439E+00 -0.571675612210E+00 -0.868326190181E+00 -0.803304587004E+00 -0.722847090153E+00 -0.640079422730E+00 -0.653740287290E+00
 -0.654231292516E+00 -0.661714699399E+00 -0.739308149389E+00 -0.868326190181E+00 -0.819258179565E+00 -0.754070799974E+00 -0.783450320244E+00
 -0.868326190181E+00 -0.807019243105E+00 -0.868326190181E+00 -0.868326190181E+00 -0.811773814086E+00 -0.570604505214E+00 -0.601867753319E+00
 -0.684240505886E+00 -0.771645033733E+00 -0.605038809100E+00 -0.690603678469E+00 -0.518677768236E+00 -0.600250587373E+00 -0.685894941957E+00
 -0.459204265409E+00 -0.552543682683E+00 -0.476732115741E+00 -0.611361535607E+00 -0.717648305702E+00 -0.613839940623E+00 -0.736010570421E+00
 -0.761362540340E+00 -0.751622850591E+00 -0.691957324599E+00 -0.813167543891E+00 -0.609889963694E+00 -0.657721962289E+00 -0.671336005313E+00
 -0.812076551816E+00 -0.737123031614E+00 -0.731264863208E+00 -0.661455763702E+00 -0.868326190181E+00 -0.868326190181E+00 -0.868326190181E+00
 -0.788785100417E+00 -0.868326190181E+00 -0.868326190181E+00 -0.810481528687E+00 -0.816860750715E+00 -0.804834212376E+00 -0.868326190181E+00
 -0.868326190181E+00 -0.868326190181E+00 -0.868326190181E+00 -0.807349760092E+00 -0.747376915162E+00 -0.662701185625E+00 -0.531234561485E+00
 -0.576882008656E+00 -0.811157593872E+00 -0.690702239546E+00 -0.754816916383E+00 -0.603395824927E+00 -0.645054310756E+00 -0.568063330520E+00
 -0.718669100629E+00 -0.759634243328E+00 -0.868326190181E+00 -0.809277372951E+00 -0.754576356301E+00 -0.748690818786E+00 -0.810727287363E+00
 -0.675797888055E+00 -0.399122074272E+00 -0.448560638176E+00 -0.345172299659E+00 -0.315610590768E+00 -0.300819921451E+00 -0.288466616574E+00
 -0.233308493196E+00 -0.280905937633E+00 -0.357203516262E+00 -0.224993946752E+00 -0.426815160644E+00 -0.369967000588E+00 -0.469039270418E+00
 -0.556839270408E+00 -0.440855281924E+00 -0.448595090281E+00 -0.339140107945E+00 -0.313684512587E+00 -0.232348086864E+00 -0.380511574197E+00
 -0.309224174949E+00 -0.319006845825E+00 -0.503540872307E+00 -0.306803170027E+00 -0.556876513405E+00 -0.444358917202E+00 -0.544989890531E+00
 -0.602029259356E+00 -0.654298055296E+00 -0.666156087177E+00 -0.425414695915E+00 -0.552327865893E+00 -0.515961508235E+00 -0.868326190181E+00
 -0.868326190181E+00 -0.807568323856E+00 -0.868326190181E+00 -0.868326190181E+00 -0.868326190181E+00 -0.868326190181E+00 -0.804441443852E+00
 -0.810733371015E+00 -0.868326190181E+00 -0.583180435789E+00 -0.662639289403E+00 -0.700855003388E+00 -0.738220061033E+00 -0.560890362392E+00
 -0.868326190181E+00 -0.868326190181E+00 -0.745730630631E+00 -0.814806971939E+00 -0.682692692757E+00 -0.585015155171E+00 -0.657469120981E+00
 -0.627118196234E+00 -0.504637862857E+00 -0.663466537257E+00 -0.729862868323E+00 -0.601725940250E+00 -0.590497814099E+00 -0.747560488006E+00
 -0.794514000382E+00 -0.816678468492E+00 -0.868326190181E+00 -0.868326190181E+00 -0.808524978982E+00 -0.807083468373E+00 -0.735202252141E+00
 -0.868326190181E+00 -0.868326190181E+00 -0.813381159121E+00 -0.732751559216E+00 -0.802956272275E+00 -0.868326190181E+00 -0.868326190181E+00
 -0.868326190181E+00 -0.525773159731E+00 -0.677205244497E+00 -0.811780491529E+00 -0.755137497086E+00 -0.531436534915E+00 -0.604026496663E+00
 -0.755879578547E+00 -0.684729814737E+00 -0.750543647769E+00 -0.375921317563E+00 -0.463203987064E+00 -0.383510644344E+00 -0.585810011885E+00
 -0.586141272924E+00 -0.690494026651E+00 -0.743842014091E+00 -0.529901283099E+00 -0.637291261109E+00 -0.813502267902E+00 -0.814450447906E+00
 -0.806308706599E+00 -0.733897799269E+00 -0.868326190181E+00 -0.630495949536E+00 -0.531543806698E+00 -0.699697647656E+00 -0.624925186102E+00
 -0.659686209772E+00 -0.868326190181E+00 -0.817674070618E+00 -0.674341568853E+00 -0.746374469575E+00 -0.808378168418E+00 -0.737114342823E+00
 -0.700167061795E+00 -0.632799456404E+00 -0.635486450862E+00 -0.868326190181E+00 -0.868326190181E+00 -0.868326190181E+00 -0.816326821224E+00
 -0.815660065182E+00 -0.868326190181E+00 -0.868326190181E+00 -0.815592869081E+00 -0.868326190181E+00 -0.809971447245E+00 -0.868326190181E+00
 -0.810632157948E+00 -0.868326190181E+00 -0.868326190181E+00 -0.868326190181E+00 -0.868326190181E+00 -0.802631902194E+00 -0.696948573854E+00
 -0.611001770718E+00 -0.501196685519E+00 -0.487921979145E+00 -0.734547296072E+00 -0.792918386485E+00 -0.597220111521E+00 -0.647928173275E+00
 -0.697487873796E+00 -0.518835559945E+00 -0.782234977267E+00 -0.739585623776E+00 -0.781249867295E+00 -0.868326190181E+00 -0.813427830119E+00
 -0.816056420062E+00 -0.756096769083E+00 -0.868326190181E+00 -0.868326190181E+00 -0.629244188676E+00 -0.717084762499E+00 -0.670666241761E+00
 -0.571351025088E+00 -0.300628197889E+00 -0.317497119672E+00 -0.445640448848E+00 -0.364507360289E+00 -0.243494405345E+00 -0.209807400919E+00
 -0.293703794683E+00 -0.248649712533E+00 -0.161965943959E+00 -0.154707654309E+00 -0.120848443325E+00 -0.141526589294E+00 -0.261685919887E+00
 -0.319039120797E+00 -0.235278264949E+00 -0.555808156416E-01 -0.146662735800E+00 -0.101477356236E+00 -0.148791322923E+00 -0.377327099055E+00
 -0.230915349502E+00 -0.484931382070E+00 -0.367549631009E+00 -0.430061483785E+00 -0.315748271471E+00 -0.381980195796E+00 -0.241958832443E+00
 -0.170499935844E+00 -0.265494506429E+00 -0.181463428287E+00 -0.186686430000E+00 -0.907355237839E-01 -0.356556013483E+00 -0.235268267859E+00
 -0.228746997947E+00 -0.331570593299E+00 -0.512695562551E-01 -0.182566901149E+00 -0.170437117408E+00 -0.536707868433E+00 -0.325298815551E+00
 -0.485350907604E+00 -0.467783591247E+00 -0.600906294313E+00 -0.660911336131E+00 -0.583811862569E+00 -0.735782533134E+00 -0.570151350647E+00
 -0.593274105851E+00 -0.506127635194E+00 -0.868326190181E+00 -0.868326190181E+00 -0.868326190181E+00 -0.868326190181E+00 -0.868326190181E+00
 -0.811962272257E+00 -0.868326190181E+00 -0.815997584360E+00 -0.785100946275E+00 -0.868326190181E+00 -0.868326190181E+00 -0.560455960350E+00
 -0.715614093871E+00 -0.575623433715E+00 -0.468407356814E+00 -0.464925960249E+00 -0.651323000874E+00 -0.692240643232E+00 -0.568791501218E+00
 -0.660506120636E+00 -0.644226781129E+00 -0.735710754297E+00 -0.666377904287E+00 -0.435132030748E+00 -0.638504908202E+00 -0.742641064266E+00
 -0.747282113318E+00 -0.814039964399E+00 -0.810634349984E+00 -0.795606991832E+00 -0.806087978228E+00 -0.868326190181E+00 -0.868326190181E+00
 -0.868326190181E+00 -0.868326190181E+00 -0.868326190181E+00 -0.811108376131E+00 -0.868326190181E+00 -0.737386944074E+00 -0.667513786161E+00
 -0.868326190181E+00 -0.868326190181E+00 -0.868326190181E+00 -0.798707001053E+00 -0.812943575777E+00 -0.733969858116E+00 -0.758728638380E+00
 -0.814963777303E+00 -0.868326190181E+00 -0.868326190181E+00 -0.480353678094E+00 -0.691058989544E+00 -0.468133011557E+00 -0.424965288944E+00
 -0.623747045116E+00 -0.560446140661E+00 -0.798787610899E+00 -0.811379967241E+00 -0.754222155476E+00 -0.671674655223E+00 -0.726633810399E+00
 -0.794907557767E+00 -0.287240768817E+00 -0.236698689805E+00 -0.413020945261E+00 -0.385563748405E+00 -0.251271029209E+00 -0.198457296976E+00
 -0.304109998557E+00 -0.567904885867E+00 -0.490492166836E+00 -0.556134024181E+00 -0.578441504062E+00 -0.662568879134E+00 -0.739299750394E+00
 -0.745859893560E+00 -0.445335496967E+00 -0.631706248213E+00 -0.868326190181E+00 -0.868326190181E+00 -0.868326190181E+00 -0.809349530818E+00
 -0.573584500144E+00 -0.455941552991E+00 -0.653315307547E+00 -0.723561212004E+00 -0.752830425489E+00 -0.661466936813E+00 -0.868326190181E+00
 -0.812887599732E+00 -0.868326190181E+00 -0.815149824771E+00 -0.655774218149E+00 -0.669944480171E+00 -0.743975919578E+00 -0.738192500397E+00
 -0.807228591642E+00 -0.868326190181E+00 -0.805556506596E+00 -0.807219381273E+00 -0.752587986868E+00 -0.699142531906E+00 -0.661582127622E+00
 -0.868326190181E+00 -0.868326190181E+00 -0.868326190181E+00 -0.868326190181E+00 -0.868326190181E+00 -0.806242647040E+00 -0.868326190181E+00
 -0.868326190181E+00 -0.868326190181E+00 -0.360244209887E+00 -0.442137504568E+00 -0.747207526695E+00 -0.868326190181E+00 -0.868326190181E+00
 -0.783723004596E+00 -0.807727346240E+00 -0.583460841153E+00 -0.571808161029E+00 -0.652734336048E+00 -0.720507125542E+00 -0.653710953630E+00
 -0.743341144531E+00 -0.668034324245E+00 -0.802930197288E+00 -0.738008155029E+00 -0.469738075468E+00 -0.813487592047E+00 -0.762269622610E+00
 -0.814992208009E+00 -0.868326190181E+00 -0.868326190181E+00 -0.818898269409E+00 -0.803620560106E+00 -0.743151714394E+00 -0.554795041817E+00
 -0.650622742043E+00 -0.765339559006E+00 -0.720756901671E+00 -0.692362155453E+00 -0.678066420961E+00 -0.738888853695E+00 -0.574716602868E+00
 -0.358145108251E+00 -0.230519241776E+00 -0.226045531801E+00 -0.142949710452E+00  0.357514261897E-01 -0.542013403214E-01  0.622080791725E-01
  0.322290384390E-01  0.215601757002E-01  0.163759573970E-01 -0.103690857541E+00 -0.194311847116E+00 -0.356742778017E+00  0.124160255614E+00
  0.225811932520E-01 -0.696922804953E-01 -0.836256093900E-01 -0.489817102157E-01 -0.342230298008E+00 -0.303148610773E+00 -0.329837558300E+00
 -0.218246392415E+00 -0.361363159660E+00 -0.239323467556E+00 -0.425109632299E+00 -0.126152762099E+00 -0.444360130345E-01 -0.864308263810E-01
  0.510993956663E-01 -0.637006827940E-01 -0.351798502841E+00 -0.339523043770E-01 -0.134257429638E+00 -0.259795808459E+00  0.140903337138E+00
  0.203611011796E+00  0.135326078036E+00  0.246514517836E+00 -0.702704126050E-01 -0.506516540400E-01 -0.223044892149E+00  0.878950525320E-01
 -0.420155711490E+00 -0.540380662355E+00 -0.572992078451E+00 -0.451059167192E+00 -0.590598900193E+00 -0.614500100864E+00 -0.683180445722E+00
 -0.596361287145E+00 -0.667542586359E+00 -0.529460206266E+00 -0.868326190181E+00 -0.868326190181E+00 -0.868326190181E+00 -0.868326190181E+00
 -0.816057927885E+00 -0.808548657167E+00 -0.868326190181E+00 -0.868326190181E+00 -0.761553102552E+00 -0.809779319842E+00 -0.794793572570E+00
 -0.868326190181E+00 -0.868326190181E+00 -0.541941593927E+00 -0.521650667305E+00 -0.607276608495E+00 -0.554038771967E+00 -0.518106486402E+00
 -0.388812571405E+00 -0.505232009813E+00 -0.352714482419E+00 -0.434673893919E+00 -0.443320871109E+00 -0.654752230140E+00 -0.741689197860E+00
 -0.574644191267E+00 -0.573022262629E+00 -0.630169639408E+00 -0.667253451454E+00 -0.742432860307E+00 -0.657903873137E+00 -0.698557181861E+00
 -0.726119241685E+00 -0.795867691975E+00 -0.669602836139E+00 -0.753604591143E+00 -0.326374327102E+00 -0.445293483716E+00 -0.360322976220E+00
 -0.655577721134E+00 -0.566556889809E+00 -0.767858946730E+00 -0.809758777846E+00 -0.811480928139E+00 -0.868326190181E+00 -0.868326190181E+00
 -0.868326190181E+00 -0.868326190181E+00 -0.816718788223E+00 -0.868326190181E+00 -0.868326190181E+00 -0.868326190181E+00 -0.868326190181E+00
 -0.808327835985E+00 -0.868326190181E+00 -0.868326190181E+00 -0.818211969578E+00 -0.868326190181E+00 -0.735042535309E+00 -0.646601552385E+00
 -0.868326190181E+00 -0.868326190181E+00 -0.868326190181E+00 -0.809639916115E+00 -0.755737757497E+00 -0.868326190181E+00 -0.784911991649E+00
 -0.716618606119E+00 -0.868326190181E+00 -0.500092151180E+00 -0.388982189350E+00 -0.601521392136E+00 -0.630438180270E+00 -0.511026978750E+00
 -0.748901890425E+00 -0.868326190181E+00 -0.814803927044E+00 -0.816290071051E+00 -0.868326190181E+00 -0.797658464350E+00 -0.723458490591E+00
 -0.802478576325E+00 -0.662763657749E+00 -0.732392721061E+00 -0.674869907342E+00 -0.734155106157E+00 -0.808049540914E+00 -0.705014643782E+00
 -0.868326190181E+00 -0.301461354596E+00 -0.391128971925E+00 -0.321534649321E+00 -0.472246432276E+00 -0.181698807427E+00 -0.200892001477E+00
 -0.312112582870E+00 -0.397941476523E+00 -0.270915702723E+00 -0.582128489974E+00 -0.571700016900E+00 -0.508933121382E+00 -0.560152875107E+00
 -0.643396591390E+00 -0.398151803789E+00 -0.598042425231E+00 -0.868326190181E+00 -0.868326190181E+00 -0.500630167353E+00 -0.748014584789E+00
 -0.643667018756E+00 -0.669953557132E+00 -0.717527235788E+00 -0.743715982355E+00 -0.800064639852E+00 -0.806491496906E+00 -0.820217668185E+00
 -0.736760472545E+00 -0.659035807794E+00 -0.609233361224E+00 -0.868326190181E+00 -0.868326190181E+00 -0.868326190181E+00 -0.798525534396E+00
 -0.714058985312E+00 -0.741109011872E+00 -0.698288498720E+00 -0.816870502740E+00 -0.800725411420E+00 -0.731419656726E+00 -0.868326190181E+00
 -0.868326190181E+00 -0.868326190181E+00 -0.814020463840E+00 -0.751384756372E+00 -0.750905056171E+00 -0.811530386513E+00 -0.672372314287E+00
 -0.745944008181E+00 -0.868326190181E+00 -0.868326190181E+00 -0.868326190181E+00 -0.461856352721E+00 -0.386419471822E+00 -0.815232981053E+00
 -0.868326190181E+00 -0.868326190181E+00 -0.868326190181E+00 -0.810941434591E+00 -0.795525348367E+00 -0.868326190181E+00 -0.808732555350E+00
 -0.659317438272E+00 -0.565595944759E+00 -0.675936489053E+00 -0.605988037264E+00 -0.506693818113E+00 -0.721450740300E+00 -0.607954223776E+00
 -0.579108766603E+00 -0.748818413083E+00 -0.680440277775E+00 -0.793564420977E+00 -0.744109611597E+00 -0.807850052576E+00 -0.739325360155E+00
 -0.868326190181E+00 -0.811300478452E+00 -0.868326190181E+00 -0.868326190181E+00 -0.868326190181E+00 -0.812923721555E+00 -0.738579206401E+00
 -0.811719071724E+00 -0.609795700651E+00 -0.707632986468E+00 -0.794634210900E+00 -0.745606145689E+00 -0.675888067151E+00 -0.750605286240E+00
 -0.811648869807E+00 -0.807215350706E+00 -0.691454918371E-01 -0.643786561813E-01 -0.250753220276E+00 -0.197406053535E+00  0.192784635392E+00
  0.944513669049E-01  0.253342490841E+00  0.679879585190E-01  0.226458483607E+00  0.296866667898E+00  0.132740965327E+00  0.264354625880E+00
  0.329115330398E+00  0.149882676744E+00 -0.449554320533E-01  0.793289411179E-01  0.448492510327E-01 -0.114734881121E+00 -0.520614063499E-01
 -0.218078996571E+00 -0.264958716709E+00 -0.118462520919E+00 -0.454057969678E+00 -0.350926016618E+00 -0.491219263676E+00 -0.351961120807E+00
  0.227334308369E-01 -0.406775704011E-02  0.208307632617E+00 -0.728594959946E-01 -0.346439599731E-01  0.173702280637E+00  0.293637498209E-02
  0.105349447310E+00 -0.296588612974E+00  0.131133733728E+00 -0.140938617371E-01 -0.788247171149E-01 -0.975283502737E-01 -0.303458713266E+00
  0.412922778480E+00  0.366132775495E+00  0.245643754239E+00  0.332726976459E+00  0.243172012464E+00  0.440782449057E+00  0.467889758949E+00
  0.185301561447E+00  0.565055720593E+00  0.412400894894E+00 -0.142797125955E+00 -0.315501193080E+00 -0.275356155268E+00 -0.472423904395E+00
 -0.504046876689E+00 -0.530545257169E+00 -0.648066798090E+00 -0.671640794382E+00 -0.622439573960E+00 -0.502832022328E+00 -0.627477422747E+00
 -0.707408704699E+00 -0.723146378198E+00 -0.656724509211E+00 -0.734196034147E+00 -0.745418268413E+00 -0.652542523816E+00 -0.607293289551E+00
 -0.868326190181E+00 -0.868326190181E+00 -0.868326190181E+00 -0.868326190181E+00 -0.868326190181E+00 -0.799475897120E+00 -0.868326190181E+00
 -0.817551384278E+00 -0.816049404975E+00 -0.812943592414E+00 -0.868326190181E+00 -0.438003839329E+00 -0.498960159890E+00 -0.500151077724E+00
 -0.629355831968E+00 -0.555548382142E+00 -0.584484615842E+00 -0.453139071632E+00 -0.336509072104E+00 -0.517104139130E+00 -0.371714257859E+00
 -0.529392145614E+00 -0.259436076201E+00 -0.497929478667E+00 -0.357987898621E+00 -0.447947352856E+00 -0.482159238419E+00 -0.403972499650E+00
 -0.378002840374E+00 -0.483337095865E+00 -0.738255840023E+00 -0.686546476483E+00 -0.810980154958E+00 -0.803992033420E+00 -0.567523275941E+00
 -0.651753706416E+00 -0.641471535878E+00 -0.590637972298E+00 -0.656432296711E+00 -0.527446676989E+00 -0.699115361122E+00 -0.763976605521E+00
 -0.732676470465E+00 -0.713993254573E+00 -0.744754798394E+00 -0.672823477167E+00 -0.738505187258E+00 -0.808192898717E+00 -0.793794923642E+00
 -0.312374946199E+00 -0.260951684476E+00 -0.394095471610E+00 -0.378656398698E+00 -0.243924206157E+00 -0.678001421265E+00 -0.707983990976E+00
 -0.628592745745E+00 -0.463696161169E+00 -0.528207514560E+00 -0.577539004009E+00 -0.868326190181E+00 -0.868326190181E+00 -0.816557246880E+00
 -0.868326190181E+00 -0.868326190181E+00 -0.868326190181E+00 -0.868326190181E+00 -0.868326190181E+00 -0.763444511994E+00 -0.868326190181E+00
 -0.868326190181E+00 -0.812803611512E+00 -0.769770196015E+00 -0.868326190181E+00 -0.739264454694E+00 -0.436453829939E+00 -0.563383388113E+00
 -0.333338900945E+00 -0.338819499013E+00 -0.670034511771E+00 -0.632057104753E+00 -0.468459185058E+00 -0.430255015063E+00 -0.531871405303E+00
 -0.808984184652E+00 -0.868326190181E+00 -0.868326190181E+00 -0.868326190181E+00 -0.868326190181E+00 -0.776305228266E+00 -0.868326190181E+00
 -0.794929774949E+00 -0.726575737384E+00 -0.748731745624E+00 -0.868326190181E+00 -0.868326190181E+00 -0.809789640503E+00 -0.749674511288E+00
 -0.653642606733E+00 -0.678237646722E+00 -0.200070320907E+00 -0.285290667459E+00 -0.394249291044E+00 -0.352332834894E+00 -0.306618724491E+00
 -0.467293247383E+00 -0.499677591559E+00 -0.169488177347E+00 -0.191169206634E+00 -0.312355344868E+00 -0.151051634241E+00 -0.290404051123E+00
 -0.593165330392E+00 -0.569319436571E+00 -0.580900492853E+00 -0.507288537945E+00 -0.678351384756E+00 -0.598353199987E+00 -0.677047676358E+00
 -0.702122995223E+00 -0.667247113848E+00 -0.738675377841E+00 -0.801098175968E+00 -0.808893247413E+00 -0.742112927179E+00 -0.750959309845E+00
 -0.868326190181E+00 -0.868326190181E+00 -0.797128760904E+00 -0.868326190181E+00 -0.868326190181E+00 -0.868326190181E+00 -0.741013087054E+00
 -0.666518323473E+00 -0.676771225322E+00 -0.588890708828E+00 -0.868326190181E+00 -0.868326190181E+00 -0.868326190181E+00 -0.822237041333E+00
 -0.801255512983E+00 -0.764247915218E+00 -0.809448700904E+00 -0.766686159202E+00 -0.801037938651E+00 -0.868326190181E+00 -0.868326190181E+00
 -0.868326190181E+00 -0.868326190181E+00 -0.819366664501E+00 -0.808836529568E+00 -0.868326190181E+00 -0.812281706956E+00 -0.808769084855E+00
 -0.868326190181E+00 -0.868326190181E+00 -0.805792558540E+00 -0.868326190181E+00 -0.425648818868E+00 -0.868326190181E+00 -0.868326190181E+00
 -0.868326190181E+00 -0.868326190181E+00 -0.868326190181E+00 -0.868326190181E+00 -0.868326190181E+00 -0.868326190181E+00 -0.667447587774E+00
 -0.686081635342E+00 -0.551174778653E+00 -0.614419670944E+00 -0.732505843133E+00 -0.665685432799E+00 -0.745222054464E+00 -0.801604325032E+00
 -0.539370582400E+00 -0.809770190827E+00 -0.756586638005E+00 -0.810888321133E+00 -0.611262998941E+00 -0.809460822758E+00 -0.751130675949E+00
 -0.673101701471E+00 -0.725216816011E+00 -0.868326190181E+00 -0.812874650517E+00 -0.809992831179E+00 -0.733938837191E+00 -0.803071396693E+00
 -0.868326190181E+00 -0.868326190181E+00 -0.735249732253E+00 -0.799114495201E+00 -0.868326190181E+00 -0.868326190181E+00 -0.788183188207E+00
 -0.868326190181E+00 -0.868326190181E+00 -0.821581845260E+00 -0.587729252271E+00 -0.746217316072E+00 -0.754465656144E+00 -0.868326190181E+00
 -0.813891307211E+00 -0.717444129528E+00 -0.808842942378E+00 -0.802157210043E+00 -0.816334598333E+00 -0.815586843191E+00 -0.737422148443E+00
 -0.868326190181E+00 -0.868326190181E+00 -0.868326190181E+00 -0.824007529625E+00 -0.916117780356E-01  0.849981601308E-01 -0.738238713062E-02
  0.147617223964E+00  0.215144169226E-01 -0.106451733257E+00  0.303050061815E+00  0.534950942048E+00  0.388680844254E+00  0.483879113722E+00
  0.571008796282E+00  0.211838515597E+00  0.977563379701E-03  0.120753961056E+00 -0.132447368395E+00 -0.148033063286E-01 -0.396181018491E+00
  0.164564499095E+00 -0.493209199016E+00 -0.523825173096E+00 -0.414751505320E+00 -0.522355970077E+00 -0.236746317665E+00 -0.454157536697E+00
  0.962037289281E-01 -0.183560525593E+00  0.137525655818E+00  0.410019505563E+00  0.860226605246E-01  0.359878014424E+00  0.458068774512E-01
 -0.120076051308E+00  0.583129013643E+00  0.498672997054E+00  0.789073197189E+00  0.322614210418E+00  0.729618540731E+00 -0.582155403236E+00
 -0.564290792104E+00 -0.649248856346E+00 -0.782448351520E+00 -0.788792451004E+00 -0.703452834787E+00 -0.607621306323E+00 -0.719820601447E+00
 -0.776435480126E+00 -0.808319162432E+00 -0.791891941202E+00 -0.799703438360E+00 -0.713130023151E+00 -0.750312187266E+00 -0.787529121524E+00
 -0.627023837693E+00 -0.698450265284E+00 -0.691825043163E+00 -0.868326190181E+00 -0.868326190181E+00 -0.868326190181E+00 -0.809267283822E+00
 -0.868326190181E+00 -0.821620832465E+00 -0.868326190181E+00 -0.868326190181E+00 -0.583833675595E+00 -0.591055156299E+00 -0.658389294430E+00
 -0.561663770017E+00 -0.383146191187E+00 -0.389718920388E+00 -0.454359171944E+00 -0.278149156422E+00 -0.528784282361E+00 -0.568381600681E+00
 -0.593233916939E+00 -0.402891419659E+00 -0.314591653870E+00 -0.312503447359E+00 -0.439882599704E+00 -0.496649011450E+00 -0.501996212555E+00
 -0.490525934986E+00 -0.582571646748E+00 -0.568544349033E+00 -0.409330516066E+00 -0.402868420609E+00 -0.778341019949E+00 -0.739589298999E+00
 -0.665372609415E+00 -0.655808796067E+00 -0.738866673536E+00 -0.868326190181E+00 -0.868326190181E+00 -0.868326190181E+00 -0.868326190181E+00
 -0.868326190181E+00 -0.659351439399E+00 -0.735494039090E+00 -0.656173210071E+00 -0.728089658687E+00 -0.588715585336E+00 -0.682563026923E+00
 -0.490016792841E+00 -0.505976223437E+00 -0.770164610166E+00 -0.806350451625E+00 -0.808948992400E+00 -0.738444277957E+00 -0.810641090059E+00
 -0.750479061727E+00 -0.810882772900E+00 -0.803271376633E+00 -0.742635358643E+00 -0.806996655045E+00 -0.868326190181E+00 -0.868326190181E+00
 -0.812476531687E+00 -0.262759961645E+00 -0.302574379707E+00 -0.135494831519E+00 -0.429171126011E+00 -0.409516757040E+00 -0.337366615860E+00
 -0.485432109308E+00 -0.695197034078E+00 -0.658773760817E+00 -0.736711228595E+00 -0.749258357909E+00 -0.557363637742E+00 -0.608545127879E+00
 -0.592285652903E+00 -0.589620137880E+00 -0.498040287184E+00 -0.662659881310E+00 -0.868326190181E+00 -0.868326190181E+00 -0.868326190181E+00
 -0.806974458896E+00 -0.868326190181E+00 -0.868326190181E+00 -0.868326190181E+00 -0.502556796742E+00 -0.435671553753E+00 -0.332867801778E+00
 -0.589660770430E+00 -0.670381528850E+00 -0.579268308640E+00 -0.470063811473E+00 -0.868326190181E+00 -0.868326190181E+00 -0.807579947676E+00
 -0.809236319404E+00 -0.745578384910E+00 -0.789307009509E+00 -0.868326190181E+00 -0.868326190181E+00 -0.868326190181E+00 -0.813710455295E+00
 -0.754828973162E+00 -0.748126112669E+00 -0.815673609440E+00 -0.684522626670E+00 -0.592699066573E+00 -0.670363016106E+00 -0.204038721164E+00
 -0.275815036224E+00 -0.268126302021E+00 -0.243523244588E+00 -0.480217812511E+00 -0.374976591300E+00 -0.502127721227E+00 -0.544002796669E-01
 -0.177465740532E+00 -0.157298875817E+00 -0.306800748412E+00 -0.395569277012E+00 -0.272009343071E+00 -0.320378362914E+00 -0.641936943832E+00
 -0.593519866148E+00 -0.503197555811E+00 -0.499554511493E+00 -0.594068115347E+00 -0.696377151496E+00 -0.676768900173E+00 -0.651751341674E+00
 -0.721245526316E+00 -0.812362667480E+00 -0.807545321017E+00 -0.794013334296E+00 -0.868326190181E+00 -0.868326190181E+00 -0.868326190181E+00
 -0.818470699592E+00 -0.868326190181E+00 -0.868326190181E+00 -0.813891342199E+00 -0.743166142775E+00 -0.722512422242E+00 -0.806666099334E+00
 -0.807910153634E+00 -0.740156131893E+00 -0.799698112395E+00 -0.662900823256E+00 -0.698257515243E+00 -0.748797833738E+00 -0.594413608135E+00
 -0.567774977916E+00 -0.868326190181E+00 -0.868326190181E+00 -0.868326190181E+00 -0.868326190181E+00 -0.868326190181E+00 -0.868326190181E+00
 -0.868326190181E+00 -0.868326190181E+00 -0.868326190181E+00 -0.868326190181E+00 -0.868326190181E+00 -0.868326190181E+00 -0.868326190181E+00
 -0.868326190181E+00 -0.415422296706E+00 -0.431123186543E+00 -0.549064615114E+00 -0.534104644574E+00 -0.868326190181E+00 -0.868326190181E+00
 -0.534263471714E+00 -0.642491060380E+00 -0.649115440073E+00 -0.724311553528E+00 -0.803984752811E+00 -0.799597483871E+00 -0.728506290899E+00
 -0.813980107829E+00 -0.803365960053E+00 -0.796752006859E+00 -0.868326190181E+00 -0.868326190181E+00 -0.807651967715E+00 -0.868326190181E+00
 -0.868326190181E+00 -0.868326190181E+00 -0.654474876736E+00 -0.868326190181E+00 -0.806627708027E+00 -0.745650499617E+00 -0.792507105629E+00
 -0.719197214735E+00 -0.812569605284E+00 -0.868326190181E+00 -0.868326190181E+00 -0.868326190181E+00 -0.800809839968E+00 -0.778086055504E+00
 -0.868326190181E+00 -0.868326190181E+00 -0.868326190181E+00 -0.868326190181E+00 -0.868326190181E+00 -0.671410960303E+00 -0.760961581173E+00
 -0.812873402032E+00 -0.802831906382E+00 -0.868326190181E+00 -0.868326190181E+00 -0.868326190181E+00 -0.814300047718E+00 -0.798650811963E+00
 -0.868326190181E+00 -0.868326190181E+00 -0.868326190181E+00 -0.789660848445E+00 -0.868326190181E+00 -0.868326190181E+00 -0.868326190181E+00
 -0.807104625403E+00 -0.742810952592E+00 -0.868326190181E+00  0.983513974314E-01  0.227315110724E+00  0.132244538985E-01  0.182391761518E+00
  0.392668847262E+00  0.919641400925E-01  0.640432093709E+00  0.339975566450E+00  0.119983213206E+00 -0.158861704739E+00 -0.112973514438E+00
 -0.587808773122E-01  0.762521298129E-01 -0.507225017621E+00  0.265463365744E+00 -0.585288764443E+00 -0.678796772925E+00 -0.351879863564E+00
 -0.527252795057E+00 -0.116703604875E+00 -0.361237082506E+00  0.440506053103E+00  0.411379893606E+00  0.166188615235E+00 -0.936854980470E-01
 -0.260786813942E+00 -0.775690890040E+00 -0.868326190181E+00 -0.868326190181E+00 -0.868326190181E+00 -0.868326190181E+00 -0.756932067194E+00
 -0.868326190181E+00 -0.868326190181E+00 -0.868326190181E+00 -0.868326190181E+00 -0.868326190181E+00 -0.868326190181E+00 -0.868326190181E+00
 -0.868326190181E+00 -0.779417110853E+00 -0.754721238568E+00 -0.781963123072E+00 -0.784471482228E+00 -0.868326190181E+00 -0.868326190181E+00
 -0.868326190181E+00 -0.610983196624E+00 -0.668779752089E+00 -0.718134436934E+00 -0.604667748841E+00 -0.356325223137E+00 -0.387026808876E+00
 -0.491635863780E+00 -0.388559448562E+00 -0.263137580563E+00 -0.654802636982E+00 -0.601776381185E+00 -0.669400659644E+00 -0.591154792270E+00
 -0.398585992240E+00 -0.282157395568E+00 -0.333410878981E+00 -0.484829437912E+00 -0.584478483382E+00 -0.489783200509E+00 -0.574217725851E+00
 -0.511097970647E+00 -0.654914281481E+00 -0.589737753188E+00 -0.690037487141E+00 -0.691611940950E+00 -0.665354503211E+00 -0.659466597721E+00
 -0.538850539136E+00 -0.400318994258E+00 -0.435546029043E+00 -0.449621552935E+00 -0.740029346086E+00 -0.799599055400E+00 -0.692258148231E+00