title="tecplot geometry and solution file"
variables=x y z rho u v w p
zone t="processor 7", solutiontime= 0.1800000E+04, strandid=0, n=3093, e=14054, f=feblock, et=tetrahedron
  0.396693302198E+00  0.463282883779E+00  0.755021380425E+00  0.988513789443E+00  0.991923411679E+00  0.122658585776E+01  0.801622704484E+00
  0.101096472751E+01  0.937974541390E+00  0.129147365473E+01  0.117887625218E+01  0.162819292957E+01  0.141883134162E+01  0.573768042683E+00
  0.780491895343E+00  0.838143330307E+00  0.130377229215E+01  0.112806635894E+01  0.812560909328E+00  0.122585393177E+01  0.122143694512E+01
  0.168595113670E+01  0.139713401034E+01  0.158621822647E+01  0.221552283412E+01  0.196738166921E+01  0.188621880916E+01  0.153075631698E+01
  0.591684167785E+00  0.683948603565E+00  0.107094217577E+01  0.892020495206E+00  0.100253950603E+01  0.157288941263E+01  0.183887875645E+01
  0.136268270185E+01  0.151729754317E+01  0.179421510736E+01  0.128855393823E+01  0.788449408446E+00  0.114307419596E+01  0.139260010908E+01
  0.216626650015E+01  0.205908040910E+01  0.125433886153E+01  0.180456864196E+01  0.243293900399E+01  0.190571021680E+01  0.205682239021E+01
  0.145743475622E+01  0.165620754338E+01  0.212450334369E+01  0.254690357507E+01  0.199518666039E+01  0.171750414805E+01  0.308075763786E+00
  0.293988154878E+00  0.315218794446E+00  0.621342745300E+00  0.594100097033E+00  0.421696591181E+00  0.765440177736E+00  0.131293620441E+01
  0.885507506553E+00  0.868001633516E+00  0.899724617421E+00  0.184052191769E+01  0.119614564209E+01  0.160283772687E+01  0.175993202592E+01
  0.229789205883E+01  0.115950095082E+01  0.122140493036E+01  0.945823241604E+00  0.168149016210E+01  0.166146479707E+01  0.397051634414E+00
  0.795149863049E+00  0.108385724563E+01  0.100865340417E+01  0.104171823492E+01  0.174339104591E+01  0.128916700982E+01  0.123047655386E+01
  0.296039440845E+01  0.240401840005E+01  0.215564990113E+01  0.106459360368E+01  0.131104151810E+01  0.156105346900E+01  0.208048515769E+01
  0.171830086543E+01  0.351996254303E+01  0.174549364594E+01  0.232256009743E+01  0.126377369972E+01  0.197249145388E+01  0.172462785781E+01
  0.213064776503E+01  0.227356257224E+01  0.182303408381E+01  0.155479454329E+01 -0.146737927599E-01  0.163939788451E+00  0.715787818410E-01
  0.298987086560E+00  0.131353405032E+00  0.315771573489E-01  0.254247771049E+00  0.478365094242E+00  0.192875259228E+00  0.531009502369E+00
  0.607394428962E+00  0.545674978435E+00  0.212214072051E+00  0.130283304422E+01  0.102394543883E+01  0.782894788724E+00  0.519593554310E+00
  0.845104111410E+00  0.855486978200E+00  0.168426451046E+01  0.122062910405E+01  0.150775100502E+01  0.162334324400E+01  0.315160542119E+01
  0.304935284792E+01  0.209272145175E+01  0.113149878358E+01  0.941028772722E+00  0.144396948376E+01  0.108515497863E+01  0.626100081117E+00
  0.170178474921E+01  0.397036371990E-01  0.210339414519E+00  0.573492991255E+00  0.639348587079E-01  0.419908832708E+00  0.736607281973E+00
  0.814187018369E+00  0.783166464385E+00  0.110179471119E+01  0.150439377405E+01  0.112764873710E+01  0.105675793225E+01  0.139308120843E+01
  0.944793077999E+00  0.744377587810E+00  0.111549029513E+01  0.158037595003E+01  0.172194677241E+01  0.182232623192E+01  0.290488246717E+01
  0.210785110524E+01  0.116773200595E+01  0.185943193023E+01  0.240596871391E+01  0.161163944118E+01  0.157659252417E+01  0.146699683503E+01
  0.133177194992E+01  0.107587507755E+01  0.123141810989E+01 -0.179580075320E+00 -0.156411625807E+00 -0.198220864844E+00  0.109558083859E-01
  0.170183296713E+00 -0.126316188853E+00  0.431555579759E-01  0.259029584838E+00  0.304174522507E-01  0.241838129234E+00  0.329176003723E+00
 -0.734355205597E-01  0.464053705946E+00  0.442184586588E+00  0.240375660164E+00  0.521937739240E+00  0.642384039480E+00  0.116285400251E+01
  0.645075434570E+00  0.454413290135E+00  0.626767912920E+00  0.203059288334E+00  0.196382978562E+00  0.728866471814E+00  0.674668169032E+00
  0.662985867948E+00  0.248845702919E+01  0.140948119401E+01  0.193175083240E+01  0.149102892272E+01  0.274740939206E+01  0.256391592404E+01
  0.310969211475E+01  0.180897780513E+01  0.155953352571E+01  0.715992226792E+00  0.115155165692E+01  0.111717951317E+01  0.698033817698E+00
  0.992787913044E+00  0.207686951547E+00  0.128245412633E+01 -0.306421152778E+00 -0.166705078997E+00  0.261555342423E+00  0.841103370120E-02
  0.907994901695E-01  0.311185457077E+00  0.550512597417E+00 -0.134131167551E+00  0.364906545455E+00  0.472633480637E+00  0.731528499263E+00
  0.736870401732E+00  0.740534423461E+00  0.298695291811E+00  0.736390472881E+00  0.946179511636E+00  0.112417185295E+01  0.638877149646E+00
  0.632841068514E+00  0.131800755317E+01  0.110567946799E+01  0.234046998651E+01  0.218165519961E+01  0.117077269065E+01  0.190572853861E+01
  0.114655089964E+01  0.991174881485E+00  0.682178366624E+00  0.124417010496E+01  0.105517670802E+01  0.143337461278E+01  0.111350652659E+01
  0.104837713797E+01  0.890451959301E+00  0.964411009238E+00  0.600714313195E+00 -0.393621146432E+00 -0.270789763176E+00 -0.385681825609E+00
 -0.676404811400E-01 -0.131170942489E+00  0.143182732952E+00  0.416852011062E-01 -0.471294720019E-01 -0.387372996094E+00 -0.235690092903E+00
 -0.324260968064E+00  0.295362507404E+00  0.252342754270E+00  0.247496325342E+00  0.240213302128E+00  0.269016302278E+00  0.639937966331E+00
  0.126137187314E+01  0.385259169113E+00  0.333327998304E+00 -0.528044416813E-01  0.342523136444E+00  0.159049376011E+01  0.255252808959E+01
  0.251738963444E+01  0.152160404834E+01  0.388784304196E+01  0.306687325492E+01  0.265865158410E+01  0.131493558316E+01  0.712427112820E+00
  0.763452512949E+00  0.534214580993E+00  0.638541330483E+00  0.622623949105E+00  0.677351051796E+00  0.739745289916E+00 -0.408111757947E+00
 -0.528535493117E+00 -0.301968250128E+00 -0.564402764501E+00 -0.253507301829E+00 -0.127618577962E+00 -0.494322894186E+00 -0.437720429554E+00
 -0.329468658695E+00  0.505008642335E-01  0.321712175061E+00  0.614571728223E-01  0.377613433253E+00 -0.348526714224E+00  0.333631894832E+00
  0.836357608127E-01  0.439357420297E+00  0.518450166101E+00  0.329293391587E+00 -0.159157528740E+00 -0.669304540444E-01  0.284469942157E-01
  0.579917484645E+00  0.210863738671E+00  0.205610320500E+00  0.103331912969E+00  0.433275713526E+00  0.101255439810E+01  0.637533649008E+00
  0.535650115683E+00  0.172183149337E+01  0.136310439468E+01  0.817827679370E+00  0.218892996251E+00  0.101584654494E+00  0.212268159712E+00
  0.153682382040E+01  0.843023599752E+00  0.136121326809E+01  0.731441303182E+00  0.227169595036E+00  0.778608978906E-01  0.813194299771E-01
  0.169089727684E+00  0.130583907296E+00  0.778854278098E+00  0.705027889405E+00  0.645454882744E+00  0.293775900245E+00  0.397660036871E+00
  0.366365570476E+00  0.477786462288E+00  0.558254117148E+00  0.750049963769E+00  0.187601856798E+00  0.420992128711E+00  0.170331590686E+00
  0.175252564562E+00  0.210755325218E+00 -0.561467693073E+00 -0.166481873481E+00 -0.355753179602E+00 -0.294884466119E+00 -0.181738305655E+00
 -0.494482603353E+00 -0.853648074600E-01 -0.161019057974E+00 -0.589396245791E+00 -0.541354968311E+00 -0.529584619112E+00 -0.684239165088E+00
  0.601607592881E+00  0.308403615885E+00  0.144197377200E+00 -0.271718465729E+00  0.153511269993E+00 -0.217071097640E+00  0.116602814092E+01
  0.191223152708E+01  0.626933649199E+00  0.335169934395E+01  0.276357610066E+01  0.417452779550E+00  0.536472245888E+01  0.239248834428E+01
  0.240750902745E+01  0.190808605278E+01 -0.223885525671E+00  0.632527055536E-01 -0.145180594948E+00 -0.353148757076E-01 -0.371635369568E+00
 -0.643918073725E+00 -0.636272401348E+00 -0.763429670239E+00 -0.659381696483E+00 -0.739871431461E+00 -0.755628100109E+00 -0.825412094564E+00
 -0.857179102302E+00 -0.632864444962E+00 -0.621338935060E+00 -0.562984404213E+00 -0.391830554952E-01 -0.342245992183E+00 -0.128300640226E+00
 -0.283975735601E+00 -0.149260541426E+00 -0.422369445363E+00 -0.463657914433E+00 -0.235621945212E+00 -0.833410684654E-01 -0.161720004239E+00
 -0.424760954753E+00 -0.299360349945E+00 -0.367180847728E+00 -0.177641300699E+00 -0.187901076568E+00 -0.261238030630E+00  0.121360388167E+01
 -0.171534188767E+00  0.232391208734E+01  0.390807370195E-01 -0.629893816934E-01  0.815563385965E+00 -0.747294471157E+00 -0.169696775447E+00
 -0.375333091216E+00 -0.610150874879E+00 -0.113779078132E+01 -0.780335623888E+00  0.564039547132E+00  0.204549244388E-01  0.190986537968E+01
 -0.965040430414E-01  0.139820301601E+01 -0.312423903966E+00  0.240907281901E+00 -0.769962496906E+00  0.615795119051E+00 -0.769768010797E+00
 -0.499136547657E+00 -0.516637059160E+00 -0.409517955364E+00  0.336753057135E+00 -0.442464529269E-02 -0.357627736212E+00 -0.185002517121E+00
 -0.410952946182E+00 -0.240801600000E+00 -0.155052099480E+00 -0.510592213514E+00 -0.546037549157E-01 -0.249945998136E+00 -0.140461213136E+00
 -0.553789330362E+00 -0.928744438525E-02 -0.990996853149E-01 -0.349713120441E+00 -0.181473235068E+00 -0.355660545055E+00 -0.907151031782E+00
 -0.612884826744E+00 -0.830510947649E+00 -0.634990175945E+00 -0.869542061525E+00 -0.459147407048E+00 -0.953320310589E+00 -0.795267705690E+00
 -0.863412727855E+00 -0.103594775312E+01 -0.461315436595E+00 -0.738245046039E+00 -0.751636884916E+00  0.182975543736E+00 -0.869006027585E+00
  0.317613653101E+01  0.240473313014E+01  0.161073748181E+01  0.122597620199E+01 -0.110750013141E+01 -0.892378164852E+00 -0.710040920002E+00
 -0.927660049910E+00 -0.831206789570E+00 -0.940798179798E+00 -0.105710881658E+01 -0.930623644158E+00 -0.897004451995E+00 -0.837798404717E+00
 -0.886634275759E+00 -0.985899482594E+00 -0.108456397182E+01 -0.113768346285E+01 -0.649696834411E+00 -0.881460875325E+00 -0.895842589435E+00
 -0.787390456681E+00 -0.694298156627E+00 -0.710523853522E+00 -0.897207838628E+00 -0.756360209203E+00 -0.113613256768E+01 -0.964930629360E+00
 -0.106710171249E+01 -0.552671187460E+00 -0.513151823117E+00 -0.803400536064E+00 -0.106270338251E+01 -0.808239584422E+00 -0.763980621964E+00
 -0.129249180821E+01 -0.871754952505E+00 -0.105425552149E+01 -0.170296864314E+01 -0.150781934528E+01  0.288089781993E+00  0.286209241254E+01
  0.750754448761E+00 -0.128143292300E+01 -0.161944066674E+01 -0.815710100567E+00 -0.359138643475E+00 -0.152278295182E+01 -0.193510952791E+01
 -0.239349755712E+01 -0.247540866815E+01 -0.173290547082E+01 -0.156040538895E+01 -0.157562848496E+01 -0.241210821641E+01 -0.186067264522E+01
 -0.855879031872E+00  0.125093115683E+01  0.992400208916E+00 -0.103243393986E+01 -0.471671053000E+00 -0.141028324156E+01 -0.153672208951E+01
 -0.156175864390E+01 -0.985818263044E+00 -0.248401354941E+00 -0.240710722040E+01 -0.214418105678E+01 -0.263799456610E+01 -0.680352404225E+00
 -0.716776811114E+00 -0.104305858826E+01 -0.116267126626E+01 -0.674853034939E+00 -0.779792745430E+00 -0.127197075702E+01 -0.110600159283E+01
 -0.106729835307E+01 -0.110437068163E+01 -0.184902945595E+01  0.126089826855E+01 -0.417891986325E+00 -0.535968004268E-01 -0.160222868816E+01
 -0.656405375324E+00 -0.168219111496E+01 -0.954522875582E+00 -0.101323939596E+01 -0.125109216786E+01 -0.117010555334E+01 -0.124698697797E+01
 -0.113321600572E+01 -0.113596950805E+01 -0.116640332555E+01 -0.139674464196E+01 -0.116751890845E+01 -0.139172585025E+01 -0.134008056326E+01
 -0.842954854243E+00 -0.262438346243E+01 -0.232819221178E+01  0.239225115236E+01  0.168230188236E+00 -0.201691382027E+01 -0.130324873220E+01
 -0.171944490761E+01 -0.121572235984E+01 -0.934918238607E+00 -0.112521731703E+01 -0.139576685985E+01 -0.140711314126E+01 -0.120336287127E+01
 -0.106227263079E+01 -0.946203056921E+00 -0.120142746874E+01 -0.126524833580E+01 -0.119095816582E+01 -0.140813526571E+01 -0.142366588766E+01
 -0.110894116619E+01 -0.125518234108E+01 -0.117188073530E+01 -0.911258052220E+00 -0.138647347032E+01 -0.175426639460E+01 -0.143050562132E+01
 -0.134551053138E+01 -0.147809278281E+01 -0.176673097923E+01 -0.147160958774E+01 -0.137475282370E+01 -0.199249872095E+01 -0.268558182310E+01
 -0.148771404538E+01 -0.324432078361E+01 -0.300078589157E+01 -0.231864144987E+01  0.401852865826E+00 -0.629252900410E+00  0.694934214451E+00
 -0.104292777736E+01 -0.296927518785E+00 -0.223427237465E+01 -0.158281848014E+01 -0.279825330477E+01 -0.254376497080E+01 -0.244980369341E+01
 -0.291057926800E+01 -0.312515706409E+01 -0.219339809496E+01 -0.271865010263E+01 -0.421195674048E+01 -0.396317512991E+01 -0.277955378860E+01
 -0.399088889880E+01 -0.427786137338E+01 -0.363914296520E+01 -0.426112376854E+01 -0.293161081025E+01 -0.191053889868E+01 -0.227719992198E+01
 -0.245805358506E+01 -0.235605812646E+01 -0.183954029395E+01 -0.324001935733E+01 -0.310527531484E+01 -0.289361714184E+01 -0.402973133133E+01
 -0.270537670057E+01 -0.377587963088E+00 -0.216586842242E+01 -0.238614508354E+01 -0.266343882391E+01 -0.344952218199E+01 -0.380144981450E+01
 -0.240851680622E+01 -0.150981198926E+01  0.801544594460E+00 -0.143737375248E+01 -0.311879127978E+01 -0.165533955951E+01 -0.414689202913E+01
 -0.428611954003E+01 -0.424207180413E+01 -0.457205403391E+01 -0.138571937982E+01 -0.121284331513E+01 -0.170738431296E+01 -0.201768023757E+01
 -0.203376685723E+01 -0.140218580599E+01 -0.947590797249E+00 -0.230646052025E+01 -0.191565783933E+01 -0.160816555973E+01 -0.149486214905E+01
 -0.270783688292E+01 -0.183397445001E+01 -0.225127249528E+01 -0.292290653286E+01 -0.223682683976E+01  0.155490733703E+00  0.228774408049E+00
 -0.798931886238E+00 -0.115614097189E+01  0.820965643092E+00 -0.106962861889E+01 -0.226115190165E+01 -0.213774940558E+01 -0.285582420396E+01
 -0.267491534193E+01 -0.126077476033E+01 -0.150792707544E+01 -0.163315071794E+01 -0.168818579220E+01 -0.171754500567E+01 -0.165181167570E+01
 -0.147372727651E+01 -0.170935399747E+01 -0.167091113449E+01 -0.185722919078E+01 -0.161954136979E+01 -0.179966121325E+01 -0.422062790792E+00
 -0.216601095690E+01 -0.340062334643E+01 -0.309718036066E+01 -0.436911365789E+01 -0.312392351045E+01 -0.366654977876E+01 -0.399672684353E+01
  0.389970516884E+01  0.177417510575E+01 -0.228825329786E+01 -0.282077840372E+01 -0.249666247436E+01 -0.310977185467E+01 -0.220400177710E+01
 -0.217863628123E+01 -0.156026933287E+01 -0.166344453930E+01 -0.172866565440E+01 -0.177455214924E+01 -0.156545776641E+01 -0.135804510412E+01
 -0.117723366568E+01 -0.160218734305E+01 -0.163543716086E+01 -0.186856291888E+01 -0.145144694571E+01 -0.166865380362E+01 -0.159872824127E+01
 -0.209934411629E+01 -0.245578011272E+01 -0.167864848329E+01 -0.195082916189E+01 -0.198423387858E+01 -0.182570472428E+01 -0.164094998777E+01
 -0.215439338341E+01 -0.239850841711E+01 -0.189145564508E+01 -0.351774544238E+01 -0.400275376251E+01 -0.498309917790E+01 -0.468807610109E+01
 -0.379532853673E+01 -0.312040933657E+01  0.911292076387E+00 -0.139625974025E+01 -0.548824446966E+00  0.105012821472E+01 -0.785583608455E+00
 -0.295761330019E+01 -0.190292297437E+01 -0.393640188502E+01 -0.359345451712E+01 -0.382677236473E+00 -0.292063198305E+01 -0.467082547432E+01
 -0.399958976725E+01 -0.413110339639E+01 -0.430436094788E+01 -0.486229371201E+01 -0.553985552339E+01 -0.627296346953E+01 -0.642766833437E+01
 -0.625103877945E+01 -0.568595412423E+01 -0.594646383455E+01 -0.308500799775E+01 -0.379721246208E+01 -0.541395778211E+01 -0.595004288530E+01
 -0.581632789309E+01 -0.445437418407E+01 -0.446573047519E+01 -0.602393675636E+01 -0.414995269679E+01 -0.547054818523E+01 -0.410612304353E+01
 -0.227441346016E+01 -0.262909436934E+01 -0.276163091261E+01 -0.297816886036E+01 -0.393105577364E+01 -0.281773720979E+01 -0.326715940379E+01
 -0.399164227386E+01 -0.314748549520E+01 -0.278218561605E+01 -0.366461136151E+01 -0.493053549621E+01 -0.503980851520E+01 -0.504422331713E+01
 -0.417162889315E+01 -0.356117346559E+01  0.218623815746E+00 -0.146867077796E+01 -0.176053417750E+01 -0.116050602595E+01 -0.313520439149E+01
 -0.377054224425E+01 -0.346522376353E+01 -0.280718618910E+01 -0.468913842927E+01 -0.525510128199E+01 -0.540506903661E+01 -0.577724887997E+01
 -0.648290359037E+01 -0.409707826494E+01  0.107915594290E+00 -0.377288778094E+01 -0.619805145228E+01 -0.280959440307E+01 -0.629666662682E+01
 -0.636903824682E+01 -0.505095896608E+01 -0.544648992256E+01 -0.193642227070E+01 -0.153371645973E+01 -0.269559561840E+01 -0.337473470633E+01
 -0.444160286459E+00 -0.166658558276E+01 -0.353648185518E+01 -0.129822674392E+01 -0.294364137073E+01 -0.238571429539E+01 -0.242385907214E+01
 -0.356186696255E+01 -0.146169666677E+00 -0.527918887966E+00 -0.204287386045E+01 -0.250123826564E+01 -0.772527851134E-01 -0.208318366135E+01
 -0.357547989886E+01 -0.366020025048E+01 -0.429335620381E+01 -0.390530211370E+01 -0.136855216075E+01 -0.205890854941E+01 -0.196774441638E+01
 -0.212073953187E+01 -0.196214809326E+01 -0.225115405658E+01 -0.198053634872E+01 -0.217393034853E+01 -0.192639209829E+01 -0.212934189010E+01
 -0.181591638208E+00  0.213540448834E+00 -0.159260887946E+00 -0.199569397713E+01 -0.164687126834E+01 -0.295931270268E+01 -0.340701111316E+01
 -0.454039817475E+01 -0.406148147339E+01 -0.445080366376E+01 -0.567649563684E+01 -0.541802786332E+01 -0.314381481438E+01 -0.346999718040E+01
 -0.445681131791E+01 -0.509100229839E+01 -0.407957491710E+01 -0.511714769375E+01 -0.658593815580E+01  0.185523021986E+01 -0.265630026666E+01
 -0.340982173483E+01 -0.429259338924E+01 -0.208641284379E+01 -0.236453111171E+01 -0.164647025594E+01 -0.177163204324E+01 -0.194661388993E+01
 -0.278701303775E+01 -0.198184531663E+01 -0.227622322128E+01 -0.218288257762E+01 -0.273314923547E+01 -0.635017393598E+01 -0.706756649164E+01
 -0.520686779156E+01 -0.660486282020E+01 -0.533098394487E+01 -0.137314511281E+01 -0.238374368808E+01 -0.715736121543E+00 -0.448604934525E+01
 -0.415014194164E+01 -0.588069794523E+01 -0.541307288916E+01 -0.334221428112E+01 -0.927072634443E+00 -0.443219764657E+01 -0.589245424431E+01
 -0.657141465735E+01 -0.717466939544E+01 -0.512381561020E+01 -0.682744572754E+01 -0.643741561579E+01 -0.789633151622E+01 -0.825186870605E+01
 -0.787913709335E+01 -0.878963561147E+01 -0.824748559411E+01 -0.869611616069E+01 -0.829995382252E+01 -0.911756403219E+01 -0.731866329362E+01
 -0.806081137027E+01 -0.355459580616E+01 -0.405268649938E+01 -0.495326334776E+01 -0.569399536380E+01 -0.699706868186E+01 -0.584033636216E+01
 -0.785195819242E+01 -0.716009004999E+01 -0.760955194274E+01 -0.626430482074E+01 -0.617828723665E+01 -0.777788682731E+01 -0.426386195277E+01
 -0.480107076184E+01 -0.559066264373E+01 -0.841757171565E+01 -0.605352268114E+01 -0.541890505931E+01 -0.794335827526E+01 -0.779066043326E+01
 -0.640330362805E+01 -0.528862979742E+01 -0.246594543008E+01 -0.261035418984E+01 -0.327921357587E+01 -0.322403311648E+01 -0.308742405824E+01
 -0.395344933258E+01 -0.328687789851E+01 -0.383336596694E+01 -0.475016005359E+01 -0.402697946170E+01 -0.328657306623E+01 -0.337909697904E+01
 -0.522642839064E+01 -0.640473260249E+01 -0.572879004204E+01 -0.182670058399E+01 -0.530060040232E+01 -0.531637645637E+01 -0.482400975326E+01
 -0.401388303261E+01 -0.574149459354E+01 -0.334399768172E+01 -0.700217304708E+01 -0.774336528963E+01 -0.814156940528E+01 -0.756237393948E+01
 -0.645854251388E+01 -0.789362305936E+01 -0.796368650623E+01 -0.958180066375E+01 -0.998428311263E+01 -0.631678834805E+01  0.182271487868E+01
 -0.593920581764E+00 -0.148105157096E+01 -0.381155782359E+01 -0.681938624720E+01 -0.647118896749E+01 -0.758011530452E+01 -0.980247606437E+01
 -0.873062864619E+01 -0.403204385048E+01 -0.893905579530E+01 -0.896191995185E+01 -0.782428490518E+01 -0.275394391426E+01 -0.200312813349E+01
 -0.380673056108E+01 -0.470133978131E+01 -0.462056928571E+01 -0.350783222152E+01 -0.436555209506E+01 -0.223468442303E+01 -0.355877140120E+01
 -0.216102668964E+01  0.939216727117E+00  0.133753785797E+01 -0.109639601866E+01 -0.103648879011E+01  0.130523519274E+01 -0.973414468365E+00
 -0.260904229732E+01 -0.405451170816E+01 -0.324092862814E+00 -0.451495465285E+01 -0.574563603776E+01 -0.630359197021E+01 -0.566877235586E+01
 -0.252219885138E+01 -0.246448297885E+01 -0.259379239185E+01 -0.230313226265E+01 -0.235781528024E+01 -0.260029658866E+01 -0.236008188751E+00
  0.750940144627E+00 -0.289747424726E+00 -0.110904901251E+01 -0.163936815253E+01 -0.292007415655E+01 -0.314648881493E+01 -0.430941777727E+01
 -0.442119455392E+01 -0.537245198601E+01 -0.569197041123E+01 -0.443697788361E+01 -0.407171260854E+01 -0.514884160235E+01 -0.438257102492E+01
 -0.481990263311E+01 -0.739905736467E+01 -0.752498671927E+01 -0.609234976371E+01 -0.661837008785E+01 -0.696534938325E+01 -0.240925780487E+01
 -0.373138062720E+01 -0.545336058786E+01 -0.533808573428E+01 -0.405065088435E+01 -0.535519104600E+01 -0.623116443578E+01 -0.611592974831E+01
 -0.633370185996E+01 -0.522041066279E+01 -0.319113584301E+01 -0.856765261340E+01  0.646840539295E+00 -0.317852102066E+01 -0.373013738408E+01
 -0.235265732282E+01 -0.256385423610E+01 -0.286717147693E+01 -0.292336146011E+01 -0.827071300650E+01 -0.960476396484E+01 -0.744606537737E+01
 -0.908281477992E+01 -0.670354803963E+01 -0.311117352893E+01 -0.148438390771E+01 -0.379218899333E+01 -0.241780775243E+01 -0.490457612185E+01
 -0.563575611301E+01  0.117295944460E+00 -0.216433822392E+01 -0.396855348928E+01 -0.672480906091E+01 -0.592037822946E+01 -0.859085822985E+01
 -0.748933797312E+01 -0.823448110258E+01 -0.736956157421E+01 -0.593482560746E+01 -0.921595758783E+01 -0.730246360974E+01 -0.466631713817E+01
 -0.682623386925E+01 -0.917910606836E+01 -0.959419291224E+01 -0.956822035371E+01 -0.552595588354E+01 -0.484414247102E+01 -0.645014860524E+01
 -0.875525924416E+01 -0.112730317043E+02 -0.103150533137E+02 -0.104102549612E+02 -0.117769556515E+02 -0.112406945131E+02 -0.100379522013E+02
 -0.127538051497E+02 -0.112998263721E+02 -0.117391465671E+02 -0.106726417949E+02 -0.107797645720E+02 -0.122801511960E+02 -0.100497245855E+02
 -0.926362646251E+01 -0.344225115921E+01 -0.371417330277E+01 -0.428887079130E+01 -0.601854261041E+01 -0.739703549970E+01 -0.888314217800E+01
 -0.600628542678E+01 -0.507279697312E+01 -0.652005069170E+01 -0.105990307539E+02 -0.101395706332E+02 -0.739237544283E+01 -0.821838272910E+01
 -0.906999923919E+01 -0.783705726078E+01 -0.934995824772E+01 -0.803785866688E+01 -0.963939316568E+01 -0.647062441882E+01 -0.403360603376E+01
 -0.413178366345E+01 -0.489174305393E+01 -0.720400908352E+01 -0.897418034897E+01 -0.913246159006E+01 -0.914596672772E+01 -0.340313724691E+01
 -0.336153023927E+01 -0.405772377704E+01 -0.383703104393E+01 -0.360627599955E+01 -0.428378886446E+01 -0.552415087190E+01 -0.447763680572E+01
 -0.349793384306E+01 -0.477115203641E+01 -0.731354966232E+01 -0.737196573905E+01 -0.871355654930E+01 -0.744810006217E+01 -0.552973893122E+01
 -0.766850750898E+01 -0.669815713714E+01 -0.511402695588E+01 -0.548038107573E+01 -0.793387550770E+01 -0.808912810066E+01 -0.165853836634E+01
 -0.375432492991E+01 -0.979874507653E+01 -0.103036476766E+02 -0.106905183516E+02 -0.104268744918E+02 -0.932377528418E+01 -0.839814542689E+01
 -0.794195332317E+01 -0.106596744290E+02 -0.949262776109E+01 -0.114151669070E+02 -0.124085487757E+02 -0.107331271203E+02 -0.114263861365E+02
 -0.140493443907E+02 -0.128128784607E+02 -0.125853485743E+02 -0.990456602046E+01 -0.137320496065E+02 -0.128363712676E+02 -0.971413611807E+01
 -0.815879819250E+01 -0.290193036739E+01 -0.377125052743E+01 -0.273427152340E+01 -0.506097079668E+01 -0.432625681891E+01 -0.544169144245E+01
 -0.583216951156E+01 -0.639317280214E+01 -0.520888141613E+01 -0.376244302454E+01 -0.620901631505E+01 -0.162530122500E+01 -0.462846952727E+01
 -0.409023117447E+01  0.128050296053E+01  0.127553433089E+01  0.169409952805E+01 -0.309837802705E+01 -0.117461965818E+01  0.296778559038E+00
 -0.215777218647E+01  0.333235392445E+01  0.377408061518E+00  0.205294269690E+01 -0.112223431567E+01 -0.758331746672E+01 -0.555730534636E+01
 -0.729745164101E+01  0.122464679915E-14 -0.348899706479E+01 -0.703663231375E+01 -0.570324954328E+01 -0.861225288947E+01 -0.682430685587E+01
 -0.737694091641E+01 -0.943983509264E+01 -0.283949531566E+01 -0.309379486425E+01 -0.118770286943E+01 -0.142480264850E+01 -0.241439695992E+01
 -0.336209681828E+01 -0.576482098897E+01 -0.617013364050E+01 -0.679590417079E+01 -0.514235581079E+01 -0.549214281424E+01 -0.498303812175E+01
 -0.387621007859E+01 -0.410450472033E+01 -0.522865577972E+01 -0.101576877433E+02 -0.842685887204E+01 -0.729717636190E+01 -0.977570508314E+01
 -0.898323011771E+01 -0.976135183683E+01 -0.561324098850E+01 -0.770551851257E+01 -0.697137179151E+01 -0.689343087713E+01 -0.778330111413E+01
 -0.301183802089E+01 -0.388724355174E+01 -0.400912662379E+01 -0.556671336811E+01 -0.734132016365E+01 -0.646997560938E+01 -0.748926581673E+01
 -0.538856060517E+01 -0.467733150151E+01 -0.376539214778E+01 -0.645170466602E+01 -0.835746464782E+01 -0.764373467158E+01 -0.603184907110E+01
 -0.431014241891E+01 -0.271625008738E+01 -0.673232439318E+01 -0.362674123083E+01 -0.117769628300E+02 -0.114141061361E+02 -0.123903613463E+02
 -0.115033063612E+02 -0.114848455409E+02 -0.111638139725E+02 -0.113180671914E+02 -0.788809288081E+01 -0.721856759567E+01 -0.948759763191E+01
 -0.783125261349E+01 -0.103952344832E+02 -0.115734817689E+02 -0.975776841478E+01 -0.122006741745E+02 -0.113340321649E+02 -0.863459035959E+01
 -0.142909567413E+02 -0.131188321878E+02 -0.147181568136E+02 -0.142751319196E+02 -0.158172209889E+02 -0.145708893697E+02 -0.161969932253E+02
 -0.133228123754E+02 -0.143104062225E+02 -0.126649864160E+02 -0.144048338876E+02 -0.140172284913E+02 -0.984683641132E+01 -0.382416204438E+01
 -0.374819128085E+01 -0.425916537602E+01 -0.617949968606E+01 -0.688824184195E+01 -0.830299669516E+01 -0.562185906655E+01 -0.139617707749E+02
 -0.133468437820E+02 -0.119174501993E+02 -0.875323981558E+01 -0.647436080097E+01 -0.105656121207E+02 -0.955189162142E+01 -0.747225499526E+01
 -0.117428008701E+02 -0.914012246539E+01 -0.115491096430E+02 -0.866177673657E+01 -0.119809468639E+02 -0.116641583070E+02 -0.109089939533E+02
 -0.633227235009E+01 -0.734460126135E+01 -0.456353692583E+01 -0.110037744620E+02 -0.125687481060E+02 -0.983830946645E+01 -0.334887308976E+01
 -0.338382301520E+01 -0.340165570115E+01 -0.393894283789E+01 -0.389402759169E+01 -0.468433950308E+01 -0.484629962296E+01 -0.758979833108E+01
 -0.638767644413E+01 -0.883453537864E+01 -0.110368283213E+02 -0.813465374750E+01 -0.546480920033E+01 -0.431995339082E+01 -0.815207798979E+01
 -0.755170135208E+01 -0.949817571500E+01 -0.947427739918E+01 -0.101015548648E+02 -0.800329206222E+01 -0.536173179048E+01 -0.156480978462E+01
 -0.896347003281E+01 -0.699773199348E+01 -0.413252399336E+01 -0.991021540569E+01 -0.103877210032E+02 -0.952559698085E+01 -0.160589073422E+01
 -0.255696806767E+01 -0.117617573015E+02 -0.124471243116E+02 -0.116825606905E+02 -0.120091676761E+02 -0.132290835049E+02 -0.122912506922E+02
 -0.119993850240E+02 -0.134944844636E+02 -0.142534490651E+02 -0.135075565302E+02 -0.952396710464E+01 -0.152916667510E+02 -0.133716368447E+02
 -0.150990743552E+02 -0.119286449702E+02 -0.117262902358E+02 -0.138484934431E+02 -0.170106653174E+02 -0.168139658538E+02 -0.151176785619E+02
 -0.155646527506E+02 -0.276486261110E+01 -0.292924021098E+01 -0.394840678147E+01 -0.272531946367E+01 -0.447812648332E+01 -0.547430807010E+01
 -0.311891924811E+01 -0.621917672012E+01 -0.480093517097E+01 -0.310835375504E+01 -0.518924468741E+01 -0.352946362761E+01 -0.441022824777E+01
 -0.625994761982E+01 -0.678051750720E+01 -0.606814742397E+01 -0.425766154271E+01 -0.372869691965E+01 -0.839512605460E+01 -0.171834185692E+01
 -0.243443128308E+01 -0.678769725655E+01 -0.570827199984E+01 -0.380565360758E+01 -0.565751372693E+01 -0.331932317897E+01  0.241768539372E+01
 -0.221012938773E-01 -0.220211498848E-03 -0.143604753012E+01 -0.967418120506E+00  0.185895363757E+01  0.356812253770E-01 -0.228160060822E+01
 -0.314276439374E+01  0.426747865763E+01  0.414380677213E+01  0.688976514235E+00 -0.101079780948E+00  0.222510707636E+01  0.222238985094E+01
 -0.188369386168E+01 -0.149900610607E+00 -0.979069437535E+01 -0.879297191619E+01 -0.646773624062E+01 -0.661892336368E+01 -0.703653152168E+01
 -0.976279095804E+01 -0.783745714691E+01 -0.863224870424E+01 -0.104336654260E+02 -0.105439921585E+02 -0.113353413602E+02 -0.137743131389E+02
 -0.289661847872E+00 -0.187717152814E+01 -0.378436674490E+01 -0.644397262829E+01 -0.765813610687E+01 -0.620617957407E+01 -0.795717729585E+01
 -0.463508236720E+01 -0.415036887405E+01 -0.555966825644E+01 -0.664978396669E+01 -0.509072950769E+01 -0.504470967977E+01 -0.128003328567E+02
 -0.110021544098E+02 -0.114450420656E+02 -0.964999636269E+01 -0.121968492491E+02 -0.957591617206E+01 -0.113755136024E+02 -0.877202395785E+01
 -0.670072472856E+01 -0.660707760616E+01 -0.830262686028E+01 -0.379764261483E+01 -0.751046560886E+01 -0.595987999266E+01 -0.549727816088E+01
 -0.512239994970E+01 -0.685333643308E+01 -0.820227298885E+01 -0.868989985921E+01 -0.828930424122E+01 -0.892675853896E+01 -0.103329651465E+02
 -0.476199413730E+01 -0.704995187267E+01 -0.501130823918E+01 -0.878894571942E+01 -0.650264896879E+01 -0.284275405972E+01 -0.458455638710E+01
 -0.422880426744E+01 -0.877901802671E+01 -0.716723570324E+01 -0.322104721772E+01 -0.134308469124E+02 -0.137604611954E+02 -0.157697389667E+02
 -0.141476494542E+02 -0.137285692904E+02 -0.132753961208E+02 -0.122163036639E+02 -0.133076598973E+02 -0.152177790030E+02 -0.871961352079E+01
 -0.963498540848E+01 -0.821461297275E+01 -0.107027614492E+02 -0.114477107841E+02 -0.137759384726E+02 -0.158517701806E+02 -0.174391487869E+02
 -0.181809380224E+02 -0.165893062929E+02 -0.163158254936E+02 -0.162369152715E+02 -0.177088141901E+02 -0.157142606051E+02 -0.168789448900E+02
 -0.175349813162E+02 -0.104321706625E+02 -0.378534635343E+01 -0.637999703615E+01 -0.990877218156E+01 -0.788342615087E+01 -0.922646585255E+01
 -0.161534607293E+02 -0.149286784569E+02 -0.763606112195E+01 -0.758212154872E+01 -0.919593841688E+01 -0.112821799664E+02 -0.104674323025E+02
 -0.580360114184E+01 -0.590745862320E+01 -0.650927064036E+01 -0.889241523244E+01 -0.110681370202E+02 -0.740524406468E+01 -0.131771686849E+02