TITLE="fun3d_case_title"
VARIABLES="Iteration" "R_1" "R_2" "R_3" "R_4" "R_5" "C_L" "C_D" "C_M_x" "C_M_y" "C_M_z" "Wall Time" "C_x" "C_y" "C_z" "C_Lp" "C_Dp" "C_Lv" "C_Dv" "C_M_xp" "C_M_yp" "C_M_zp" "C_M_xv" "C_M_yv" "C_M_zv" "C_xp" "C_yp" "C_zp" "C_xv" "C_yv" "C_zv"
ZONE  I=1 F=POINT
1  0.1755562465E-01  0.3551072384E+00  0.1054871131E-15  0.2050212597E+00  0.4832521507E+01 -0.2446386309E-04  0.5183803725E-04  0.1300227827E-10 -0.1970115918E-05 -0.6702205985E-09  0.6470000000E+00  0.5712498869E-04  0.3947810370E-07  0.4732691715E-05 -0.2446386309E-04  0.5183803725E-04  0.0000000000E+00  0.0000000000E+00  0.1300227827E-10 -0.1970115918E-05 -0.6702205985E-09  0.0000000000E+00  0.0000000000E+00  0.0000000000E+00  0.5712498869E-04  0.3947810370E-07  0.4732691715E-05  0.0000000000E+00  0.0000000000E+00  0.0000000000E+00
