TITLE="fun3d_case_title"
VARIABLES="Iteration" "R_1" "R_2" "R_3" "R_4" "R_5" "C_L" "C_D" "C_M_x" "C_M_y" "C_M_z" "Wall Time" "C_x" "C_y" "C_z" "C_Lp" "C_Dp" "C_Lv" "C_Dv" "C_M_xp" "C_M_yp" "C_M_zp" "C_M_xv" "C_M_yv" "C_M_zv" "C_xp" "C_yp" "C_zp" "C_xv" "C_yv" "C_zv"
ZONE  I=1 F=POINT
1  0.1710444147E-01  0.3370891280E+00  0.1054508131E-15  0.1946184988E+00  0.4471594414E+01 -0.2572299425E-04  0.5451170237E-04  0.1366303459E-10 -0.2072727563E-05 -0.7183954744E-09  0.7020000000E+00  0.6007001618E-04  0.4141641990E-07  0.4979084703E-05 -0.2572299425E-04  0.5451170237E-04  0.0000000000E+00  0.0000000000E+00  0.1366303459E-10 -0.2072727563E-05 -0.7183954744E-09  0.0000000000E+00  0.0000000000E+00  0.0000000000E+00  0.6007001618E-04  0.4141641990E-07  0.4979084703E-05  0.0000000000E+00  0.0000000000E+00  0.0000000000E+00
