TITLE="fun3d_case_title"
VARIABLES="Iteration" "R_1" "R_2" "R_3" "R_4" "R_5" "C_L" "C_D" "C_M_x" "C_M_y" "C_M_z" "Wall Time" "C_x" "C_y" "C_z" "C_Lp" "C_Dp" "C_Lv" "C_Dv" "C_M_xp" "C_M_yp" "C_M_zp" "C_M_xv" "C_M_yv" "C_M_zv" "C_xp" "C_yp" "C_zp" "C_xv" "C_yv" "C_zv"
ZONE  I=1 F=POINT
1  0.1710563002E-01  0.3371359768E+00  0.1054838276E-15  0.1946455470E+00  0.4472520699E+01 -0.2571952103E-04  0.5450435912E-04  0.1365808344E-10 -0.2072426618E-05 -0.7232824815E-09  0.6730000000E+00  0.6006192013E-04  0.4141900449E-07  0.4978420976E-05 -0.2571952103E-04  0.5450435912E-04  0.0000000000E+00  0.0000000000E+00  0.1365808344E-10 -0.2072426618E-05 -0.7232824815E-09  0.0000000000E+00  0.0000000000E+00  0.0000000000E+00  0.6006192013E-04  0.4141900449E-07  0.4978420976E-05  0.0000000000E+00  0.0000000000E+00  0.0000000000E+00
